# vtk DataFile Version 3.0
vtk output
ASCII
DATASET UNSTRUCTURED_GRID
POINTS 400 float
1	0.25	0.75	
0.75	0	0.75	
0.738612	0.261388	1	
0.426339	0.426339	0.426339	
1	0.25	0.75	
0.738612	0.261388	1	
1	0.625	0.625	
0.426339	0.426339	0.426339	
0	0.75	0.75	
0.345703	1	0.654297	
0.28125	0.71875	1	
0.426339	0.426339	0.426339	
1	0.25	0.75	
1	0.345703	0.345703	
0.75	0	0.75	
0.426339	0.426339	0.426339	
0.71875	1	0.71875	
0.625	0.625	1	
0.345703	1	0.654297	
0.426339	0.426339	0.426339	
0	0.75	0.75	
0.28125	0.71875	1	
0	0.345703	0.654297	
0.426339	0.426339	0.426339	
0.625	0.625	1	
0.71875	1	0.71875	
1	0.625	0.625	
0.426339	0.426339	0.426339	
0.625	0.625	1	
1	0.625	0.625	
0.738612	0.261388	1	
0.426339	0.426339	0.426339	
1	0.71875	0.28125	
0.625	1	0.375	
0.75	0.75	0	
0.426339	0.426339	0.426339	
0.375	0	0.625	
0.738612	0.261388	1	
0.75	0	0.75	
0.426339	0.426339	0.426339	
0.345703	1	0.654297	
0.625	0.625	1	
0.28125	0.71875	1	
0.426339	0.426339	0.426339	
0.71875	1	0.71875	
0.625	1	0.375	
1	0.625	0.625	
0.426339	0.426339	0.426339	
0.71875	1	0.71875	
0.345703	1	0.654297	
0.625	1	0.375	
0.426339	0.426339	0.426339	
1	0.345703	0.345703	
0.654297	0	0.345703	
0.75	0	0.75	
0.426339	0.426339	0.426339	
1	0.71875	0.28125	
0.75	0.75	0	
0.625	0.375	0	
0.426339	0.426339	0.426339	
0.625	1	0.375	
1	0.71875	0.28125	
1	0.625	0.625	
0.426339	0.426339	0.426339	
0.28125	0.71875	1	
0.357477	0.350856	1	
0	0.345703	0.654297	
0.426339	0.426339	0.426339	
1	0.25	0.75	
1	0.625	0.625	
1	0.345703	0.345703	
0.426339	0.426339	0.426339	
0.375	0	0.625	
0.357477	0.350856	1	
0.738612	0.261388	1	
0.426339	0.426339	0.426339	
0.357477	0.350856	1	
0.625	0.625	1	
0.738612	0.261388	1	
0.426339	0.426339	0.426339	
1	0.71875	0.28125	
0.625	0.375	0	
1	0.345703	0.345703	
0.426339	0.426339	0.426339	
1	0.71875	0.28125	
1	0.345703	0.345703	
1	0.625	0.625	
0.426339	0.426339	0.426339	
0.357477	0.350856	1	
0.28125	0.71875	1	
0.625	0.625	1	
0.426339	0.426339	0.426339	
0.75	0	0.75	
1	0.25	0.75	
1	0	0.5	
1	0.345703	0.345703	
0.75	0.75	0	
0.625	1	0.375	
0.345703	0.654297	0	
0.426339	0.426339	0.426339	
0.345703	1	0.654297	
0	0.625	0.375	
0.25	1	0.25	
0.426339	0.426339	0.426339	
0.345703	1	0.654297	
0.25	1	0.25	
0.625	1	0.375	
0.426339	0.426339	0.426339	
0.345703	1	0.654297	
0	0.75	0.75	
0	0.625	0.375	
0.426339	0.426339	0.426339	
0.345703	0.654297	0	
0.625	1	0.375	
0.25	1	0.25	
0.426339	0.426339	0.426339	
0	0.75	0.75	
0.28125	0.71875	1	
0	0.5	1	
0	0.345703	0.654297	
0.375	0	0.625	
0.738612	0.261388	1	
0.5	0	1	
0.75	0	0.75	
1	0.5	1	
1	0.25	0.75	
0.738612	0.261388	1	
1	0.625	0.625	
0	0.5	0	
0	0.28125	0.28125	
0.28125	0.28125	0	
0	0.625	0.375	
0	0	0.5	
0.28125	0	0.28125	
0	0.28125	0.28125	
0.375	0	0.625	
0.28125	0	0.28125	
0.28125	0.28125	0	
0.625	0.375	0	
0.5	0	0	
1	0.345703	0.345703	
1	0	0.5	
0.75	0	0.75	
0.654297	0	0.345703	
0.28125	0.28125	0	
0	0.625	0.375	
0	0.28125	0.28125	
0.426339	0.426339	0.426339	
0	0.28125	0.28125	
0.375	0	0.625	
0.28125	0	0.28125	
0.426339	0.426339	0.426339	
0.28125	0	0.28125	
0.625	0.375	0	
0.28125	0.28125	0	
0.426339	0.426339	0.426339	
1	0.71875	0.28125	
0.75	0.75	0	
1	0.5	0	
0.625	0.375	0	
0.345703	0.654297	0	
0.25	1	0.25	
0	0.625	0.375	
0.426339	0.426339	0.426339	
0	0.345703	0.654297	
0.28125	0.71875	1	
0	0.5	1	
0.357477	0.350856	1	
0.738612	0.261388	1	
0.357477	0.350856	1	
0.375	0	0.625	
0.5	0	1	
0	0.75	0.75	
0	0.345703	0.654297	
0	0.625	0.375	
0.426339	0.426339	0.426339	
0.75	0	0.75	
0.654297	0	0.345703	
0.375	0	0.625	
0.426339	0.426339	0.426339	
0.75	0.75	0	
0.345703	0.654297	0	
0.625	0.375	0	
0.426339	0.426339	0.426339	
0	0.345703	0.654297	
0	0	0.5	
0	0.28125	0.28125	
0.375	0	0.625	
0.345703	0.654297	0	
0	0.5	0	
0.28125	0.28125	0	
0	0.625	0.375	
1	0.345703	0.345703	
1	0.71875	0.28125	
1	0.5	0	
0.625	0.375	0	
0.5	0	0	
0.625	0.375	0	
0.28125	0	0.28125	
0.654297	0	0.345703	
0.625	0.625	1	
1	0.5	1	
0.738612	0.261388	1	
1	0.625	0.625	
0.28125	0	0.28125	
0.28125	0.28125	0	
0	0.28125	0.28125	
0.426339	0.426339	0.426339	
0	0.625	0.375	
0.28125	0.28125	0	
0.345703	0.654297	0	
0.426339	0.426339	0.426339	
0	0.28125	0.28125	
0	0.345703	0.654297	
0.375	0	0.625	
0.426339	0.426339	0.426339	
0.625	0.375	0	
0.28125	0	0.28125	
0.654297	0	0.345703	
0.426339	0.426339	0.426339	
0.71875	1	0.71875	
1	1	1	
0.625	0.625	1	
1	0.625	0.625	
0.625	0.375	0	
0.654297	0	0.345703	
1	0.345703	0.345703	
0.426339	0.426339	0.426339	
0.345703	1	0.654297	
0.5	1	1	
0.625	0.625	1	
0.71875	1	0.71875	
0.5	1	0	
0.625	1	0.375	
0.345703	0.654297	0	
0.75	0.75	0	
0	0.625	0.375	
0.25	1	0.25	
0	1	0.5	
0.345703	1	0.654297	
0.375	0	0.625	
0	0.345703	0.654297	
0.357477	0.350856	1	
0.426339	0.426339	0.426339	
0.345703	1	0.654297	
0.5	1	1	
0.28125	0.71875	1	
0.625	0.625	1	
0	0.75	0.75	
0	0.625	0.375	
0	1	0.5	
0.345703	1	0.654297	
0.345703	0.654297	0	
0.25	1	0.25	
0.625	1	0.375	
0.5	1	0	
0.375	0	0.625	
0	0.345703	0.654297	
0	0	1	
0.357477	0.350856	1	
0.654297	0	0.345703	
0.625	0.375	0	
1	0.345703	0.345703	
1	0	0	
1	0.71875	0.28125	
1	0.625	0.625	
1	1	0.5	
0.625	1	0.375	
1	0.625	0.625	
0.71875	1	0.71875	
1	1	0.5	
0.625	1	0.375	
0.25	1	0.25	
0	1	0	
0.345703	0.654297	0	
0	0.625	0.375	
1	0.71875	0.28125	
0.625	1	0.375	
1	1	0	
0.75	0.75	0	
1	0.5	1	
0.625	0.625	1	
1	1	1	
1	0.625	0.625	
0	0.75	0.75	
0.345703	1	0.654297	
0	1	1	
0.28125	0.71875	1	
0	0	1	
0.375	0	0.625	
0.357477	0.350856	1	
0.5	0	1	
0	0	1	
0	0	0.5	
0	0.345703	0.654297	
0.375	0	0.625	
0	0.5	0	
0.345703	0.654297	0	
0	1	0	
0	0.625	0.375	
1	0.5	0	
1	0.345703	0.345703	
0.625	0.375	0	
1	0	0	
0.654297	0	0.345703	
0.5	0	0	
0.625	0.375	0	
1	0	0	
0	0	0	
0.28125	0	0.28125	
0.28125	0.28125	0	
0	0.28125	0.28125	
0.71875	1	0.71875	
1	1	0.5	
1	1	1	
1	0.625	0.625	
1	1	1	
0.625	0.625	1	
0.5	1	1	
0.71875	1	0.71875	
1	1	0.5	
1	0.71875	0.28125	
0.625	1	0.375	
1	1	0	
0.5	1	1	
0	1	1	
0.345703	1	0.654297	
0.28125	0.71875	1	
0	0.5	1	
0	0	1	
0	0.345703	0.654297	
0.357477	0.350856	1	
0.654297	0	0.345703	
1	0.345703	0.345703	
1	0	0.5	
1	0	0	
0.25	1	0.25	
0	1	0.5	
0	1	0	
0	0.625	0.375	
0.5	1	0	
1	1	0	
0.625	1	0.375	
0.75	0.75	0	
0	0.28125	0.28125	
0.28125	0.28125	0	
0	0	0	
0	0.5	0	
0.28125	0.28125	0	
0.28125	0	0.28125	
0	0	0	
0.5	0	0	
0	0	0	
0.28125	0	0.28125	
0	0.28125	0.28125	
0	0	0.5	
0	1	0.5	
0	0.75	0.75	
0.345703	1	0.654297	
0	1	1	
0.28125	0.71875	1	
0	1	1	
0	0.75	0.75	
0	0.5	1	
0.738612	0.261388	1	
0.5	0	1	
0.75	0	0.75	
1	0	1	
1	0	1	
1	0.25	0.75	
0.738612	0.261388	1	
1	0.5	1	
0.345703	0.654297	0	
0	1	0	
0.25	1	0.25	
0.5	1	0	
0	0.28125	0.28125	
0	0.625	0.375	
0	0.345703	0.654297	
0.426339	0.426339	0.426339	
0.375	0	0.625	
0.654297	0	0.345703	
0.28125	0	0.28125	
0.426339	0.426339	0.426339	
0.28125	0.28125	0	
0.625	0.375	0	
0.345703	0.654297	0	
0.426339	0.426339	0.426339	
0.75	0.75	0	
1	1	0	
1	0.71875	0.28125	
1	0.5	0	
1	0	0.5	
1	0.25	0.75	
0.75	0	0.75	
1	0	1	
0.738612	0.261388	1	
0.75	0	0.75	
1	0.25	0.75	
1	0	1	
CELLS 100 500
4	0	1	2	3	
4	4	5	6	7	
4	8	9	10	11	
4	12	13	14	15	
4	16	17	18	19	
4	20	21	22	23	
4	24	25	26	27	
4	28	29	30	31	
4	32	33	34	35	
4	36	37	38	39	
4	40	41	42	43	
4	44	45	46	47	
4	48	49	50	51	
4	52	53	54	55	
4	56	57	58	59	
4	60	61	62	63	
4	64	65	66	67	
4	68	69	70	71	
4	72	73	74	75	
4	76	77	78	79	
4	80	81	82	83	
4	84	85	86	87	
4	88	89	90	91	
4	92	93	94	95	
4	96	97	98	99	
4	100	101	102	103	
4	104	105	106	107	
4	108	109	110	111	
4	112	113	114	115	
4	116	117	118	119	
4	120	121	122	123	
4	124	125	126	127	
4	128	129	130	131	
4	132	133	134	135	
4	136	137	138	139	
4	140	141	142	143	
4	144	145	146	147	
4	148	149	150	151	
4	152	153	154	155	
4	156	157	158	159	
4	160	161	162	163	
4	164	165	166	167	
4	168	169	170	171	
4	172	173	174	175	
4	176	177	178	179	
4	180	181	182	183	
4	184	185	186	187	
4	188	189	190	191	
4	192	193	194	195	
4	196	197	198	199	
4	200	201	202	203	
4	204	205	206	207	
4	208	209	210	211	
4	212	213	214	215	
4	216	217	218	219	
4	220	221	222	223	
4	224	225	226	227	
4	228	229	230	231	
4	232	233	234	235	
4	236	237	238	239	
4	240	241	242	243	
4	244	245	246	247	
4	248	249	250	251	
4	252	253	254	255	
4	256	257	258	259	
4	260	261	262	263	
4	264	265	266	267	
4	268	269	270	271	
4	272	273	274	275	
4	276	277	278	279	
4	280	281	282	283	
4	284	285	286	287	
4	288	289	290	291	
4	292	293	294	295	
4	296	297	298	299	
4	300	301	302	303	
4	304	305	306	307	
4	308	309	310	311	
4	312	313	314	315	
4	316	317	318	319	
4	320	321	322	323	
4	324	325	326	327	
4	328	329	330	331	
4	332	333	334	335	
4	336	337	338	339	
4	340	341	342	343	
4	344	345	346	347	
4	348	349	350	351	
4	352	353	354	355	
4	356	357	358	359	
4	360	361	362	363	
4	364	365	366	367	
4	368	369	370	371	
4	372	373	374	375	
4	376	377	378	379	
4	380	381	382	383	
4	384	385	386	387	
4	388	389	390	391	
4	392	393	394	395	
4	396	397	398	399	
CELL_TYPES 100
10
10
10
10
10
10
10
10
10
10
10
10
10
10
10
10
10
10
10
10
10
10
10
10
10
10
10
10
10
10
10
10
10
10
10
10
10
10
10
10
10
10
10
10
10
10
10
10
10
10
10
10
10
10
10
10
10
10
10
10
10
10
10
10
10
10
10
10
10
10
10
10
10
10
10
10
10
10
10
10
10
10
10
10
10
10
10
10
10
10
10
10
10
10
10
10
10
10
10
10
CELL_DATA 100
POINT_DATA 400
SCALARS Pressure float 
LOOKUP_TABLE default
10 10 10 10 10 10 10 10 10 10 10 10 10 10 10 10 10 10 10 10 10 10 10 10 10 10 10 10 10 10 10 10 10 10 10 10 10 10 10 10 10 10 10 10 10 10 10 10 10 10 10 10 10 10 10 10 10 10 10 10 10 10 10 10 10 10 10 10 10 10 10 10 10 10 10 10 10 10 10 10 10 10 10 10 10 10 10 10 10 10 10 10 10 10 10 10 10 10 10 10 10 10 10 10 10 10 10 10 10 10 10 10 10 10 10 10 10 10 10 10 10 10 10 10 10 10 10 10 10 10 10 10 10 10 10 10 10 10 10 10 10 10 10 10 10 10 10 10 10 10 10 10 10 10 10 10 10 10 10 10 10 10 10 10 10 10 10 10 10 10 10 10 10 10 10 10 10 10 10 10 10 10 10 10 10 10 10 10 10 10 10 10 10 10 10 10 10 10 10 10 10 10 10 10 10 10 10 10 10 10 10 10 10 10 10 10 10 10 10 10 10 10 10 10 10 10 10 10 10 10 10 10 10 10 10 10 10 10 10 10 10 10 10 10 10 10 10 10 10 10 10 10 10 10 10 10 10 10 10 10 10 10 10 10 10 10 10 10 10 10 10 10 10 10 10 10 10 10 10 10 10 10 10 10 10 10 10 10 10 10 10 10 10 10 10 10 10 10 10 10 10 10 10 10 10 10 10 10 10 10 10 10 10 10 10 10 10 10 10 10 10 10 10 10 10 10 10 10 10 10 10 10 10 10 10 10 10 10 10 10 10 10 10 10 10 10 10 10 10 10 10 10 10 10 10 10 10 10 10 10 10 10 10 10 10 10 10 10 10 10 10 10 10 10 10 10 10 10 10 10 10 10 10 10 10 10 10 10 10 10 10 10 10 10 10 10 10 10 10 10 
VECTORS Velocity float 
-5.64617e-11 8.07916e-12 2 
-4.61342e-12 5.84077e-11 2 
-1.27602e-11 1.28255e-11 2 
4.46413e-12 1.59435e-11 2 
-8.2962e-11 1.67074e-11 2 
5.90322e-12 7.84723e-12 2 
-8.83605e-11 -1.51297e-11 2 
1.28529e-11 1.31216e-11 2 
6.05295e-11 -2.19487e-12 2 
9.04973e-12 -7.19705e-11 2 
1.16619e-11 -1.03348e-11 2 
1.64933e-11 -1.75571e-13 2 
-3.16474e-11 -3.53278e-12 2 
-6.21135e-11 2.67932e-12 2 
1.9471e-11 4.13755e-11 2 
-3.33465e-11 3.47179e-11 2 
-2.17734e-11 -8.35523e-11 2 
3.36952e-12 8.69436e-12 2 
1.36233e-11 -8.47576e-11 2 
6.61424e-12 7.61344e-12 2 
8.21651e-11 -2.26965e-11 2 
-3.89622e-12 2.7322e-13 2 
7.97074e-11 1.23863e-11 2 
1.68551e-11 4.00521e-12 2 
-4.35034e-12 -8.57201e-12 2 
-9.10277e-12 -6.30562e-11 2 
-7.35774e-11 -1.18534e-11 2 
3.0304e-12 5.93397e-12 2 
7.79843e-12 -9.72863e-12 2 
-7.93656e-11 -1.43397e-11 2 
-3.1299e-12 1.25558e-11 2 
4.62459e-13 8.488e-12 2 
-5.79266e-11 -5.22779e-12 2 
-3.4084e-12 -8.01506e-11 2 
-8.71114e-12 -8.7676e-12 2 
-5.53219e-12 -3.30298e-12 2 
9.26224e-12 7.89526e-11 2 
-1.19812e-12 -4.96641e-12 2 
-2.2271e-11 7.92775e-11 2 
6.20756e-12 1.43706e-11 2 
1.13695e-11 -7.7835e-11 2 
-4.03107e-12 4.86081e-12 2 
1.46938e-11 4.52986e-13 2 
1.29267e-11 -3.51374e-12 2 
4.33553e-12 -3.8491e-11 2 
-7.14644e-13 -6.26585e-11 2 
-5.55507e-11 2.06764e-11 2 
-2.17486e-11 -4.22227e-11 2 
-6.53617e-12 -5.39635e-11 2 
1.93538e-11 -6.04028e-11 2 
1.24648e-12 -5.8519e-11 2 
-1.26065e-11 -3.14556e-11 2 
-5.45778e-11 -1.7831e-11 2 
3.82696e-12 5.13674e-11 2 
1.30827e-12 4.08667e-11 2 
-2.35614e-11 6.01558e-11 2 
-7.93396e-11 -2.20216e-11 2 
2.80805e-12 -8.82589e-12 2 
1.3562e-11 1.08363e-11 2 
-5.53646e-12 8.94396e-12 2 
2.34505e-11 -6.18478e-11 2 
-4.20686e-11 5.74682e-12 2 
-5.66495e-11 -1.57877e-12 2 
-4.32056e-11 -2.23536e-11 2 
4.84856e-12 -1.01439e-11 2 
-3.86196e-12 9.1574e-12 2 
7.01601e-11 1.05503e-11 2 
2.4883e-11 1.14757e-11 2 
-4.92576e-11 2.65399e-12 2 
-6.13023e-11 -2.03035e-11 2 
-5.48642e-11 -4.14614e-13 2 
-2.786e-11 3.25111e-11 2 
9.29548e-12 7.21418e-11 2 
1.17622e-11 -3.38643e-12 2 
-1.03942e-11 2.26724e-12 2 
1.13769e-11 2.05814e-11 2 
1.64132e-12 3.75144e-12 2 
-4.95326e-12 -7.30802e-12 2 
-7.9251e-12 4.38926e-12 2 
1.9458e-11 1.22064e-11 2 
-7.86851e-11 -2.10459e-11 2 
1.36724e-11 4.11553e-12 2 
-8.8933e-11 1.0547e-11 2 
5.68703e-12 1.85296e-11 2 
-5.77417e-11 -5.94801e-12 2 
-5.78671e-11 2.35698e-11 2 
-5.32397e-11 -4.5851e-13 2 
-3.49566e-11 -1.40535e-11 2 
1.29589e-12 3.39754e-12 2 
6.48018e-12 -4.941e-12 2 
-4.80245e-12 -7.15341e-12 2 
1.90745e-11 1.17986e-11 2 
6.47611e-12 3.55677e-11 2 
-3.39244e-11 1.0383e-13 2 
4.14843e-12 1.98822e-12 2 
-5.41882e-11 -4.13743e-13 2 
-1.13507e-11 1.2344e-12 2 
-1.62038e-11 -9.35317e-11 2 
1.01277e-11 1.42174e-11 2 
7.67387e-12 -3.32732e-12 2 
1.7163e-12 -6.02864e-11 2 
6.55221e-11 2.21115e-11 2 
-3.15874e-12 -3.71213e-11 2 
4.02182e-11 -4.16117e-11 2 
9.37073e-13 -5.51032e-11 2 
4.11929e-12 -5.25311e-11 2 
-2.32396e-11 -6.11107e-11 2 
3.45195e-11 -3.35122e-11 2 
-1.49324e-11 -5.01121e-11 2 
3.81008e-11 8.86409e-12 2 
6.43496e-11 -5.52163e-12 2 
5.60633e-11 -2.47255e-11 2 
1.60237e-12 8.27255e-12 2 
-1.3533e-11 -8.69653e-11 2 
1.85186e-11 -8.31008e-11 2 
1.47538e-11 1.14104e-11 2 
5.13692e-11 -4.43701e-11 2 
2.45625e-12 2.82693e-11 2 
7.0481e-11 2.83945e-11 2 
7.65842e-11 -5.64592e-12 2 
-8.93546e-12 7.6321e-11 2 
2.69633e-11 2.76578e-12 2 
2.99089e-11 6.69189e-11 2 
-4.56068e-11 4.71951e-11 2 
-6.55764e-11 -2.84578e-11 2 
-5.24378e-11 4.53388e-11 2 
-1.83147e-12 -2.60293e-11 2 
-8.42795e-11 7.81989e-12 2 
6.74557e-11 -2.68237e-11 2 
5.29928e-11 3.85197e-11 2 
3.00179e-12 -2.53867e-11 2 
7.29992e-11 8.05752e-12 2 
6.99136e-12 -5.20051e-12 2 
-8.27476e-13 4.55025e-11 2 
4.20275e-11 -8.30334e-12 2 
-8.35797e-13 6.82663e-11 2 
4.44814e-11 9.66046e-11 2 
-1.89106e-11 -2.87392e-11 2 
-2.36504e-11 -3.16796e-11 2 
2.53e-11 5.73922e-11 2 
-4.08795e-11 -8.65963e-12 2 
-9.11062e-12 -5.70009e-12 2 
1.39279e-12 4.97393e-11 2 
-3.24987e-13 4.51802e-11 2 
-8.90465e-12 7.29681e-12 2 
8.20013e-11 -1.42834e-11 2 
8.42446e-11 1.25294e-11 2 
1.68887e-11 9.40113e-12 2 
4.8008e-11 -2.00944e-11 2 
7.61629e-12 6.9911e-11 2 
-5.889e-12 4.56878e-11 2 
2.96223e-11 3.91001e-11 2 
1.79444e-11 6.58431e-11 2 
-4.73104e-12 -3.59271e-12 2 
9.54616e-12 -3.57533e-12 2 
5.54719e-12 1.87561e-11 2 
-1.08855e-10 -4.54196e-11 2 
2.72076e-11 2.35025e-11 2 
-6.06097e-11 -2.51759e-11 2 
3.84088e-11 2.26e-11 2 
5.6743e-12 -5.30156e-12 2 
1.04145e-11 -5.79516e-11 2 
7.75313e-11 -1.33702e-11 2 
1.76571e-11 3.48734e-12 2 
9.46423e-11 2.57267e-11 2 
-1.44498e-11 -9.08607e-12 2 
4.59923e-11 1.92128e-11 2 
-2.66564e-11 -1.55492e-11 2 
-6.09765e-12 -1.43783e-11 2 
-9.74985e-12 -2.58983e-11 2 
2.03074e-11 9.39495e-11 2 
1.36186e-11 4.24944e-11 2 
5.19777e-11 -4.88197e-12 2 
6.29515e-11 1.64942e-11 2 
6.1316e-11 -2.44281e-12 2 
4.80653e-11 -1.5111e-11 2 
-8.60849e-12 4.84599e-11 2 
-1.34875e-12 5.67307e-11 2 
1.89088e-11 5.76556e-11 2 
-1.00774e-11 4.95708e-11 2 
-3.38027e-12 -5.05195e-12 2 
-6.72878e-14 -2.26964e-12 2 
-7.60253e-13 2.18345e-12 2 
7.23647e-12 1.13159e-11 2 
4.90402e-11 -2.47158e-12 2 
-5.13083e-12 1.0839e-11 2 
6.17759e-11 -3.50741e-13 2 
-9.26757e-12 4.96953e-11 2 
-2.37262e-11 8.20527e-12 2 
4.23938e-11 -1.39041e-11 2 
-1.88682e-11 8.11979e-12 2 
9.644e-11 -2.20919e-11 2 
-5.03846e-11 2.77783e-11 2 
-7.15428e-11 -1.00674e-11 2 
-7.85991e-11 -1.42607e-11 2 
9.6247e-12 -1.75355e-11 2 
1.49019e-11 7.77588e-11 2 
1.61755e-11 -1.03962e-11 2 
9.93861e-12 6.58321e-11 2 
-2.74887e-11 4.76137e-11 2 
2.87582e-11 7.65703e-12 2 
-4.27166e-11 -1.38237e-11 2 
1.49468e-11 6.438e-12 2 
-9.80986e-11 -1.76103e-11 2 
1.33094e-11 5.7626e-11 2 
9.37669e-12 1.09435e-11 2 
6.68643e-11 3.40563e-12 2 
8.9309e-12 1.08499e-11 2 
8.08789e-11 -1.48035e-11 2 
-1.57687e-12 8.46952e-12 2 
-6.77655e-12 -8.24697e-12 2 
2.01484e-11 6.95227e-12 2 
5.48881e-11 8.60528e-13 2 
5.26133e-11 -3.05686e-12 2 
-1.60692e-11 5.91173e-11 2 
4.18658e-11 2.61494e-11 2 
1.80196e-12 -1.17632e-11 2 
1.49614e-11 6.73834e-11 2 
-1.61732e-11 8.57979e-11 2 
2.95434e-12 2.18843e-11 2 
2.71873e-11 -8.83551e-11 2 
-1.75768e-11 -1.33834e-11 2 
-2.54764e-11 -3.29287e-11 2 
-8.44996e-11 3.26453e-11 2 
-9.00855e-12 7.18883e-12 2 
-2.87564e-12 6.98697e-11 2 
-6.86764e-11 6.89586e-12 2 
-2.61792e-13 2.04018e-11 2 
5.17922e-12 -7.55067e-11 2 
1.17274e-11 -7.3741e-11 2 
1.6011e-11 8.92365e-12 2 
-2.77793e-11 -5.15828e-11 2 
-1.09335e-11 -4.86072e-11 2 
-2.46781e-11 -1.11733e-10 2 
8.9897e-12 3.20546e-11 2 
1.14336e-11 1.71427e-11 2 
5.73768e-11 6.86198e-12 2 
2.42975e-12 -3.60142e-11 2 
1.01142e-11 6.60901e-12 2 
-6.8081e-12 -6.29987e-11 2 
7.47348e-12 6.56614e-11 2 
6.12442e-11 7.94501e-12 2 
1.10957e-11 9.12031e-12 2 
1.27407e-11 1.23416e-11 2 
3.01989e-11 -1.04892e-10 2 
1.42011e-11 -5.04271e-11 2 
-9.8983e-12 2.21329e-11 2 
-1.31457e-11 3.13227e-11 2 
3.52251e-11 -1.15687e-12 2 
6.70569e-11 6.87989e-12 2 
-4.22145e-12 -9.06208e-12 2 
-6.11464e-12 -5.02467e-11 2 
-2.01683e-11 4.48028e-12 2 
3.2113e-11 -4.7393e-11 2 
7.82482e-13 -7.93988e-11 2 
-1.47922e-11 -7.34202e-11 2 
-3.36088e-11 8.96623e-11 2 
8.98315e-11 -3.19169e-11 2 
1.6886e-11 1.9043e-11 2 
2.8297e-11 2.69423e-11 2 
3.43593e-11 8.46835e-11 2 
-2.72125e-11 2.69095e-11 2 
-8.73263e-11 -3.38346e-11 2 
-1.6484e-11 1.67212e-11 2 
-3.8509e-11 -2.30194e-12 2 
-5.91001e-11 7.85501e-12 2 
6.3325e-12 -1.31967e-11 2 
5.69837e-12 -5.15899e-11 2 
-4.8059e-11 5.53396e-12 2 
-2.88024e-12 -3.6704e-11 2 
-9.90204e-12 4.03624e-12 2 
7.31149e-12 -6.2476e-11 2 
-2.55353e-11 -8.50384e-11 2 
2.01317e-11 -1.21728e-11 2 
2.45081e-11 -3.57318e-11 2 
8.69369e-11 3.34223e-11 2 
-9.4696e-11 3.08167e-11 2 
3.76085e-11 -9.771e-11 2 
-2.12204e-11 -1.96693e-11 2 
-1.98512e-11 -2.33113e-11 2 
-8.57636e-11 5.25681e-13 2 
7.57784e-11 -8.01597e-12 2 
-6.77819e-11 -4.31228e-12 2 
-6.58931e-11 -1.6448e-12 2 
9.091e-11 2.8674e-11 2 
-3.7069e-11 -8.71463e-11 2 
1.47385e-11 -2.16369e-11 2 
3.51673e-11 -2.31806e-11 2 
3.0802e-12 6.92509e-11 2 
2.60397e-12 6.89832e-11 2 
8.49699e-12 -7.08185e-11 2 
-1.73628e-12 8.02931e-11 2 
2.92865e-11 2.20669e-11 2 
-1.22353e-11 -9.50526e-12 2 
5.73563e-11 -9.46952e-12 2 
-1.68524e-11 6.26862e-11 2 
8.2801e-11 4.13065e-12 2 
-7.1292e-11 -1.30247e-11 2 
6.57101e-11 -3.96525e-13 2 
6.86258e-11 -6.14817e-12 2 
-8.52882e-11 -6.78446e-12 2 
-7.14107e-11 8.16727e-12 2 
8.13651e-11 -1.11467e-11 2 
-7.0013e-11 1.45979e-11 2 
-7.40718e-12 6.9881e-11 2 
7.04359e-12 8.377e-11 2 
1.11119e-11 -8.19386e-11 2 
-1.55013e-11 7.13888e-11 2 
1.45342e-11 2.30598e-11 2 
-3.21506e-11 8.26668e-11 2 
3.57527e-11 2.29396e-11 2 
8.73363e-11 -3.39784e-11 2 
4.86778e-12 -5.1782e-11 2 
8.39889e-12 1.16208e-11 2 
-1.83335e-11 -3.17389e-11 2 
-5.97303e-11 2.17831e-11 2 
-2.81787e-11 -8.32627e-11 2 
2.53645e-11 9.42534e-11 2 
-5.06229e-13 -9.06015e-11 2 
-2.90966e-12 -7.06737e-11 2 
1.31122e-11 9.81977e-12 2 
-5.70189e-11 5.91998e-12 2 
2.61229e-11 -6.93025e-11 2 
-3.69107e-11 -2.13585e-11 2 
-1.20275e-11 -8.41499e-11 2 
-4.43904e-12 -5.68766e-11 2 
1.30904e-11 -7.37009e-11 2 
1.98469e-11 6.03759e-11 2 
8.67127e-11 2.224e-12 2 
7.03366e-11 6.54222e-12 2 
6.95144e-11 -6.20344e-13 2 
-7.55314e-11 4.84224e-12 2 
1.26231e-11 5.20022e-11 2 
-5.82939e-11 -1.45063e-11 2 
9.41987e-12 -1.35172e-11 2 
-2.38621e-11 2.92959e-11 2 
-3.12077e-12 -4.87678e-11 2 
-7.71655e-12 1.14274e-11 2 
1.64695e-11 -3.33007e-11 2 
6.76578e-11 2.45769e-11 2 
1.9215e-11 -7.87553e-11 2 
7.5727e-12 -4.93308e-11 2 
-2.02707e-11 -8.44218e-11 2 
-2.01138e-11 4.86905e-11 2 
6.73983e-11 9.26853e-12 2 
-6.73257e-11 -9.17863e-12 2 
7.0256e-11 2.2035e-11 2 
7.68372e-11 -1.87826e-11 2 
1.34406e-11 -7.03326e-11 2 
2.21858e-12 6.3297e-11 2 
2.55529e-12 6.78276e-11 2 
-1.14797e-12 9.13972e-11 2 
2.2077e-11 2.84812e-11 2 
-1.0789e-11 5.2874e-11 2 
5.59154e-11 -1.47251e-11 2 
-8.55215e-12 -1.36421e-11 2 
-1.24064e-11 9.28847e-12 2 
5.21667e-11 4.61892e-12 2 
-2.46761e-11 -6.16171e-11 2 
3.43259e-11 -1.99416e-11 2 
-7.69741e-11 2.07247e-11 2 
7.63292e-11 -2.88099e-11 2 
6.99774e-11 -9.77638e-12 2 
8.1015e-11 1.44839e-11 2 
1.15304e-11 -7.13612e-11 2 
2.02718e-11 7.60977e-11 2 
-1.20252e-11 6.03633e-11 2 
-2.49515e-11 7.5494e-11 2 
-7.40909e-11 2.36455e-11 2 
-6.22755e-11 1.32104e-11 2 
7.19873e-11 -1.00967e-11 2 
-7.77415e-11 -2.08611e-11 2 
-3.11881e-11 9.30575e-11 2 
3.52534e-11 -8.46499e-11 2 
2.03461e-12 -6.58651e-11 2 
-1.08889e-12 -9.1219e-11 2 
5.03344e-11 4.09018e-12 2 
6.71089e-11 -2.02725e-11 2 
5.84163e-11 -8.37405e-13 2 
4.98073e-11 2.36742e-11 2 
2.5537e-12 5.60995e-11 2 
-2.09152e-11 6.00479e-11 2 
2.20103e-12 5.65154e-11 2 
2.77009e-11 4.7097e-11 2 
2.07406e-12 -1.30621e-12 2 
-1.531e-12 2.95432e-12 2 
3.225e-13 -2.65969e-12 2 
9.08361e-12 1.09184e-11 2 
6.32174e-11 -1.25077e-11 2 
-5.99903e-11 1.4615e-14 2 
-7.44579e-11 -8.08104e-12 2 
-9.05154e-11 4.72947e-12 2 
1.74097e-11 -1.07845e-11 2 
-4.6941e-11 -1.00235e-11 2 
1.40545e-11 4.89249e-11 2 
-3.14295e-11 2.37343e-11 2 
-3.10255e-11 3.20563e-11 2 
3.37619e-11 7.85261e-11 2 
-7.98348e-11 -3.30331e-11 2 
-2.09403e-11 2.09895e-11 2 
TENSORS Stress float 
-10 -7.3743e-11 -4.73454e-11 
-7.3743e-11 -10 9.07201e-11 
-4.73454e-11 9.07201e-11 -10 
-10 -1.10775e-10 -7.38646e-11 
-1.10775e-10 -10 3.7437e-11 
-7.38646e-11 3.7437e-11 -10 
-10 -9.10078e-11 -1.4509e-10 
-9.10078e-11 -10 1.39053e-10 
-1.4509e-10 1.39053e-10 -10 
-10 -5.11633e-11 -8.1894e-11 
-5.11633e-11 -10 1.38172e-10 
-8.1894e-11 1.38172e-10 -10 
-10 5.18186e-11 2.98662e-11 
5.18186e-11 -10 2.60976e-11 
2.98662e-11 2.60976e-11 -10 
-10 -2.26153e-11 -3.74797e-10 
-2.26153e-11 -10 1.06009e-10 
-3.74797e-10 1.06009e-10 -10 
-10 3.43134e-11 -5.92285e-11 
3.43134e-11 -10 6.43766e-11 
-5.92285e-11 6.43766e-11 -10 
-10 2.00393e-10 -4.05817e-11 
2.00393e-10 -10 1.18393e-10 
-4.05817e-11 1.18393e-10 -10 
-10 -1.54358e-10 3.5212e-11 
-1.54358e-10 -10 -1.3357e-11 
3.5212e-11 -1.3357e-11 -10 
-10 -7.72441e-11 7.43066e-11 
-7.72441e-11 -10 -1.10867e-11 
7.43066e-11 -1.10867e-11 -10 
-10 -6.33738e-11 1.17309e-10 
-6.33738e-11 -10 -1.6304e-10 
1.17309e-10 -1.6304e-10 -10 
-10 -4.37179e-11 1.33459e-10 
-4.37179e-11 -10 -4.72622e-11 
1.33459e-10 -4.72622e-11 -10 
-10 -4.99304e-11 -1.29477e-11 
-4.99304e-11 -10 3.13857e-11 
-1.29477e-11 3.13857e-11 -10 
-10 -2.33958e-10 2.79962e-12 
-2.33958e-10 -10 -4.27524e-11 
2.79962e-12 -4.27524e-11 -10 
-10 -3.29399e-10 4.11798e-13 
-3.29399e-10 -10 -8.37296e-11 
4.11798e-13 -8.37296e-11 -10 
-10 -1.06912e-10 1.33546e-10 
-1.06912e-10 -10 2.42155e-11 
1.33546e-10 2.42155e-11 -10 
-10 -2.64725e-11 4.03818e-11 
-2.64725e-11 -10 1.1149e-10 
4.03818e-11 1.1149e-10 -10 
-10 9.42147e-13 -7.83169e-11 
9.42147e-13 -10 -2.4953e-10 
-7.83169e-11 -2.4953e-10 -10 
-10 -9.25999e-12 -3.5755e-11 
-9.25999e-12 -10 -8.71662e-11 
-3.5755e-11 -8.71662e-11 -10 
-10 -1.85725e-10 -8.97979e-11 
-1.85725e-10 -10 -3.62113e-11 
-8.97979e-11 -3.62113e-11 -10 
-10 6.06988e-11 -3.65126e-11 
6.06988e-11 -10 1.76413e-11 
-3.65126e-11 1.76413e-11 -10 
-10 -1.90048e-11 3.87772e-10 
-1.90048e-11 -10 -1.64422e-10 
3.87772e-10 -1.64422e-10 -10 
-10 2.54751e-11 1.90737e-10 
2.54751e-11 -10 -2.99946e-11 
1.90737e-10 -2.99946e-11 -10 
-10 2.96515e-10 2.18927e-11 
2.96515e-10 -10 -1.43645e-10 
2.18927e-11 -1.43645e-10 -10 
-10 2.99177e-11 -1.19968e-10 
2.99177e-11 -10 -1.16863e-10 
-1.19968e-10 -1.16863e-10 -10 
-10 8.98133e-11 -3.92636e-12 
8.98133e-11 -10 1.27529e-11 
-3.92636e-12 1.27529e-11 -10 
-10 2.24688e-11 -3.26443e-12 
2.24688e-11 -10 -5.86197e-11 
-3.26443e-12 -5.86197e-11 -10 
-10 4.65869e-11 -4.17318e-11 
4.65869e-11 -10 -8.75984e-11 
-4.17318e-11 -8.75984e-11 -10 
-10 -3.33148e-11 -1.22232e-10 
-3.33148e-11 -10 -3.65566e-11 
-1.22232e-10 -3.65566e-11 -10 
-10 1.12498e-11 6.32526e-11 
1.12498e-11 -10 3.59135e-11 
6.32526e-11 3.59135e-11 -10 
-10 -7.14736e-13 -4.83139e-11 
-7.14736e-13 -10 -3.3558e-11 
-4.83139e-11 -3.3558e-11 -10 
-10 1.88512e-11 -6.55788e-11 
1.88512e-11 -10 5.12474e-11 
-6.55788e-11 5.12474e-11 -10 
-10 1.53277e-10 -8.99542e-11 
1.53277e-10 -10 -2.11936e-11 
-8.99542e-11 -2.11936e-11 -10 
-10 1.36996e-10 2.85834e-12 
1.36996e-10 -10 -4.14843e-11 
2.85834e-12 -4.14843e-11 -10 
-10 -1.18976e-11 1.23391e-10 
-1.18976e-11 -10 1.01903e-10 
1.23391e-10 1.01903e-10 -10 
-10 7.7967e-11 -4.71518e-11 
7.7967e-11 -10 -9.09696e-11 
-4.71518e-11 -9.09696e-11 -10 
-10 1.76419e-11 -4.25187e-11 
1.76419e-11 -10 1.8103e-10 
-4.25187e-11 1.8103e-10 -10 
-10 -2.8854e-11 -2.16257e-10 
-2.8854e-11 -10 4.48758e-10 
-2.16257e-10 4.48758e-10 -10 
-10 8.69839e-11 8.29036e-12 
8.69839e-11 -10 -6.419e-11 
8.29036e-12 -6.419e-11 -10 
-10 3.4753e-10 -1.57601e-10 
3.4753e-10 -10 -3.49472e-11 
-1.57601e-10 -3.49472e-11 -10 
-10 -6.8326e-11 2.95313e-11 
-6.8326e-11 -10 6.34805e-11 
2.95313e-11 6.34805e-11 -10 
-10 -2.35536e-11 -1.62865e-12 
-2.35536e-11 -10 -8.73289e-12 
-1.62865e-12 -8.73289e-12 -10 
-10 -1.94026e-12 -5.13573e-11 
-1.94026e-12 -10 -1.45522e-10 
-5.13573e-11 -1.45522e-10 -10 
-10 -6.70128e-11 -1.03044e-10 
-6.70128e-11 -10 -7.18157e-11 
-1.03044e-10 -7.18157e-11 -10 
-10 3.35269e-11 -1.52068e-12 
3.35269e-11 -10 3.47254e-11 
-1.52068e-12 3.47254e-11 -10 
-10 1.36133e-10 5.87107e-11 
1.36133e-10 -10 3.88258e-11 
5.87107e-11 3.88258e-11 -10 
-10 2.44769e-10 4.89621e-11 
2.44769e-10 -10 3.62429e-11 
4.89621e-11 3.62429e-11 -10 
-10 1.73881e-10 6.86515e-11 
1.73881e-10 -10 1.20969e-10 
6.86515e-11 1.20969e-10 -10 
-10 -1.08209e-11 -1.9825e-11 
-1.08209e-11 -10 -1.01245e-10 
-1.9825e-11 -1.01245e-10 -10 
-10 3.85273e-11 -3.16509e-11 
3.85273e-11 -10 4.9202e-11 
-3.16509e-11 4.9202e-11 -10 
-10 -2.14108e-12 -2.97833e-11 
-2.14108e-12 -10 -9.84785e-12 
-2.97833e-11 -9.84785e-12 -10 
-10 2.3183e-10 5.69494e-11 
2.3183e-10 -10 -8.46117e-11 
5.69494e-11 -8.46117e-11 -10 
-10 -2.85215e-10 2.27358e-11 
-2.85215e-10 -10 -5.7928e-11 
2.27358e-11 -5.7928e-11 -10 
-10 -1.35954e-10 2.96906e-11 
-1.35954e-10 -10 -5.57279e-11 
2.96906e-11 -5.57279e-11 -10 
-10 -1.39361e-10 2.75091e-11 
-1.39361e-10 -10 1.30645e-11 
2.75091e-11 1.30645e-11 -10 
-10 -2.43675e-10 5.93999e-11 
-2.43675e-10 -10 -6.10612e-11 
5.93999e-11 -6.10612e-11 -10 
-10 1.20112e-10 -1.454e-10 
1.20112e-10 -10 5.60034e-11 
-1.454e-10 5.60034e-11 -10 
-10 -2.12265e-11 8.85355e-11 
-2.12265e-11 -10 -8.85471e-11 
8.85355e-11 -8.85471e-11 -10 
-10 -3.13804e-11 -1.39124e-10 
-3.13804e-11 -10 2.07215e-11 
-1.39124e-10 2.07215e-11 -10 
-10 8.78415e-11 1.53279e-10 
8.78415e-11 -10 -2.12176e-10 
1.53279e-10 -2.12176e-10 -10 
-10 2.87635e-10 -1.15879e-11 
2.87635e-10 -10 1.22727e-11 
-1.15879e-11 1.22727e-11 -10 
-10 9.83415e-11 2.80842e-11 
9.83415e-11 -10 -2.7838e-11 
2.80842e-11 -2.7838e-11 -10 
-10 1.58297e-10 2.80699e-11 
1.58297e-10 -10 -4.37635e-11 
2.80699e-11 -4.37635e-11 -10 
-10 2.29913e-10 -7.89843e-11 
2.29913e-10 -10 -6.83621e-11 
-7.89843e-11 -6.83621e-11 -10 
-10 6.15217e-12 6.18498e-11 
6.15217e-12 -10 2.52639e-11 
6.18498e-11 2.52639e-11 -10 
-10 5.63557e-12 1.41009e-10 
5.63557e-12 -10 1.03837e-11 
1.41009e-10 1.03837e-11 -10 
-10 3.47418e-12 6.24952e-11 
3.47418e-12 -10 -1.68312e-11 
6.24952e-11 -1.68312e-11 -10 
-10 6.62672e-11 7.19178e-11 
6.62672e-11 -10 -9.09471e-11 
7.19178e-11 -9.09471e-11 -10 
-10 -3.62795e-11 -1.25587e-10 
-3.62795e-11 -10 -4.93606e-12 
-1.25587e-10 -4.93606e-12 -10 
-10 -2.03365e-11 5.37363e-11 
-2.03365e-11 -10 4.45031e-11 
5.37363e-11 4.45031e-11 -10 
-10 -6.92591e-11 4.81376e-12 
-6.92591e-11 -10 3.57431e-11 
4.81376e-12 3.57431e-11 -10 
-10 -3.19048e-10 -4.78989e-11 
-3.19048e-10 -10 -1.04671e-10 
-4.78989e-11 -1.04671e-10 -10 
-10 -9.86216e-12 -2.51658e-11 
-9.86216e-12 -10 5.76305e-11 
-2.51658e-11 5.76305e-11 -10 
-10 -9.45003e-12 5.93576e-12 
-9.45003e-12 -10 1.25894e-10 
5.93576e-12 1.25894e-10 -10 
-10 3.10802e-12 2.63894e-11 
3.10802e-12 -10 7.51177e-11 
2.63894e-11 7.51177e-11 -10 
-10 4.88611e-11 -6.32853e-11 
4.88611e-11 -10 6.9047e-11 
-6.32853e-11 6.9047e-11 -10 
-10 -1.74088e-11 -2.5107e-11 
-1.74088e-11 -10 -1.01255e-11 
-2.5107e-11 -1.01255e-11 -10 
-10 -1.76397e-11 9.02406e-12 
-1.76397e-11 -10 2.31422e-11 
9.02406e-12 2.31422e-11 -10 
-10 -6.05598e-12 6.68339e-11 
-6.05598e-12 -10 -7.31453e-11 
6.68339e-11 -7.31453e-11 -10 
-10 2.60292e-11 -1.43682e-10 
2.60292e-11 -10 -2.96993e-11 
-1.43682e-10 -2.96993e-11 -10 
-10 -3.23168e-11 2.52236e-11 
-3.23168e-11 -10 6.6831e-12 
2.52236e-11 6.6831e-12 -10 
-10 1.80236e-11 8.16462e-11 
1.80236e-11 -10 4.89054e-11 
8.16462e-11 4.89054e-11 -10 
-10 -4.10666e-11 -4.57586e-11 
-4.10666e-11 -10 6.60231e-11 
-4.57586e-11 6.60231e-11 -10 
-10 9.51371e-11 8.92712e-11 
9.51371e-11 -10 -3.45267e-11 
8.92712e-11 -3.45267e-11 -10 
-10 -1.7849e-11 1.39468e-10 
-1.7849e-11 -10 -1.6929e-11 
1.39468e-10 -1.6929e-11 -10 
-10 1.78899e-11 6.64224e-11 
1.78899e-11 -10 -2.22409e-11 
6.64224e-11 -2.22409e-11 -10 
-10 -3.42555e-11 1.4277e-11 
-3.42555e-11 -10 4.87035e-12 
1.4277e-11 4.87035e-12 -10 
-10 2.44133e-10 2.09044e-10 
2.44133e-10 -10 -2.96497e-11 
2.09044e-10 -2.96497e-11 -10 
-10 -8.70087e-12 -3.0839e-11 
-8.70087e-12 -10 -1.64769e-11 
-3.0839e-11 -1.64769e-11 -10 
-10 -5.38469e-12 -8.48526e-11 
-5.38469e-12 -10 8.25513e-11 
-8.48526e-11 8.25513e-11 -10 
-10 -2.13146e-11 -8.26516e-12 
-2.13146e-11 -10 5.93303e-12 
-8.26516e-12 5.93303e-12 -10 
-10 4.08014e-11 5.09599e-12 
4.08014e-11 -10 -1.16388e-10 
5.09599e-12 -1.16388e-10 -10 
-10 -2.64112e-10 -2.93122e-11 
-2.64112e-10 -10 9.56709e-11 
-2.93122e-11 9.56709e-11 -10 
-10 -3.78243e-10 -8.59807e-11 
-3.78243e-10 -10 1.13858e-10 
-8.59807e-11 1.13858e-10 -10 
-10 -3.55191e-10 -5.87824e-11 
-3.55191e-10 -10 -8.30868e-12 
-5.87824e-11 -8.30868e-12 -10 
-10 -2.70144e-10 -7.34496e-11 
-2.70144e-10 -10 7.76647e-11 
-7.34496e-11 7.76647e-11 -10 
-10 -3.80036e-11 -5.12904e-11 
-3.80036e-11 -10 6.46819e-11 
-5.12904e-11 6.46819e-11 -10 
-10 5.23565e-11 7.9511e-11 