# vtk DataFile Version 3.0
vtk output
ASCII
DATASET UNSTRUCTURED_GRID
POINTS 21608 float
-0.1808	-0.171958	0.287248	
-0.0754532	-0.211832	0.265564	
-0.161333	-0.314459	0.347253	
-0.182528	-0.349181	0.246007	
-0.1808	-0.171958	0.287248	
-0.13253	-0.300587	0.178341	
-0.0754532	-0.211832	0.265564	
-0.182528	-0.349181	0.246007	
0.184962	0.0799289	0	
0.269795	0.177145	0.0946573	
0.175408	0.155763	0.126683	
0.140726	0.0548949	0.0839438	
0.184962	0.0799289	0	
0.246838	-0.00334576	0.115071	
0.269795	0.177145	0.0946573	
0.140726	0.0548949	0.0839438	
0.175408	0.155763	0.126683	
0.269795	0.177145	0.0946573	
0.246838	-0.00334576	0.115071	
0.140726	0.0548949	0.0839438	
0.22142	0.00817938	0.394574	
0.327533	-0.0664701	0.421022	
0.220158	-0.126618	0.388055	
0.251264	-0.0990305	0.284445	
-0.268365	-0.14329	0.5	
-0.298593	-0.101011	0.5	
-0.257817	-0.0951035	0.5	
-0.275537	-0.116472	0.371913	
-0.0144004	-0.334766	0.39505	
-0.00291132	-0.295217	0.296268	
-0.161333	-0.314459	0.347253	
-0.053625	-0.263276	0.422334	
-0.234106	-0.240455	0.5	
-0.172599	-0.285692	0.5	
-0.280119	-0.240952	0.383653	
-0.204987	-0.16964	0.406672	
-0.127619	0.285659	0.171874	
-0.265311	0.22544	0.150174	
-0.131938	0.201784	0.249878	
-0.192258	0.331995	0.253348	
-0.254144	-0.321855	0.5	
-0.161333	-0.314459	0.347253	
-0.317197	-0.386505	0.431175	
-0.280119	-0.240952	0.383653	
0.25658	0.429146	0.33124	
0.278137	0.247763	0.376191	
0.154396	0.322847	0.356278	
0.223388	0.316601	0.257498	
-0.237047	0.0201392	0	
-0.263013	0.108209	0.143902	
-0.339187	0.0209536	0.163183	
-0.26618	-0.0688348	0.104833	
-0.13253	-0.300587	0.178341	
-0.1808	-0.171958	0.287248	
-0.252329	-0.26938	0.229497	
-0.182528	-0.349181	0.246007	
0.305435	0.121825	0.172512	
0.295217	0.00291132	0.296268	
0.272001	0.0982822	0.26656	
0.230609	-0.0211924	0.217185	
-0.278552	0.259099	0.267592	
-0.131938	0.201784	0.249878	
-0.265311	0.22544	0.150174	
-0.192258	0.331995	0.253348	
-0.323938	-0.380873	0.347739	
-0.280119	-0.240952	0.383653	
-0.161333	-0.314459	0.347253	
-0.252329	-0.26938	0.229497	
-0.0843611	0.070836	0.404426	
-0.16628	0.0337112	0.418012	
-0.133323	0.00734514	0.338693	
-0.0627858	-0.0916667	0.423956	
-0.161333	-0.314459	0.347253	
-0.0754532	-0.211832	0.265564	
-0.0762452	-0.385017	0.309762	
-0.0480147	-0.273566	0.222301	
-0.133323	0.00734514	0.338693	
-0.224353	-0.050686	0.284463	
-0.233822	0.0792854	0.380146	
-0.158971	0.0982818	0.323671	
-0.428104	0.258315	0.196896	
-0.345491	0.130711	0.235494	
-0.265311	0.22544	0.150174	
-0.278552	0.259099	0.267592	
-0.13253	-0.300587	0.178341	
-0.1808	-0.171958	0.287248	
-0.0887698	-0.154954	0.166843	
-0.201128	-0.131883	0.196277	
-0.13253	-0.300587	0.178341	
-0.0887698	-0.154954	0.166843	
-0.1808	-0.171958	0.287248	
-0.0754532	-0.211832	0.265564	
-0.265311	0.22544	0.150174	
-0.278552	0.259099	0.267592	
-0.214953	0.122747	0.250047	
-0.131938	0.201784	0.249878	
0.305435	0.121825	0.172512	
0.366259	0.00318862	0.135411	
0.295217	0.00291132	0.296268	
0.230609	-0.0211924	0.217185	
-0.110158	0.209083	0.5	
-0.05	0.133333	0.5	
-0.173778	0.167507	0.398056	
-0.0162135	0.209048	0.397765	
-0.263013	0.108209	0.143902	
-0.26618	-0.0688348	0.104833	
-0.153254	0.0418185	0.0989321	
-0.199362	0.0555217	0.187248	
-0.224353	-0.050686	0.284463	
-0.273431	0.0345527	0.245119	
-0.233822	0.0792854	0.380146	
-0.158971	0.0982818	0.323671	
0.00434744	-0.0456526	0.250312	
-0.0544044	0.00856195	0.134425	
-0.0887698	-0.154954	0.166843	
-0.1108	-0.078009	0.257656	
0.0593425	-0.191106	0.170296	
0.195794	-0.195794	0.279578	
0.0700441	-0.20677	0.284029	
0.0597845	-0.282871	0.216064	
0.460548	0.194667	0.23433	
0.322691	0.187554	0.276787	
0.305435	0.121825	0.172512	
0.3762	0.0879078	0.311936	
-0.0913051	-8.8983e-18	0.5	
-0.16628	0.0337112	0.418012	
-0.0843611	0.070836	0.404426	
-0.0627858	-0.0916667	0.423956	
-0.161333	-0.314459	0.347253	
-0.252329	-0.26938	0.229497	
-0.1808	-0.171958	0.287248	
-0.182528	-0.349181	0.246007	
-0.237047	0.0201392	0	
-0.153254	0.0418185	0.0989321	
-0.263013	0.108209	0.143902	
-0.26618	-0.0688348	0.104833	
-0.0887698	-0.154954	0.166843	
-0.0544044	0.00856195	0.134425	
0.00434744	-0.0456526	0.250312	
-0.000733888	-0.121505	0.108367	
0.154396	0.322847	0.356278	
0.278137	0.247763	0.376191	
0.172599	0.285692	0.5	
0.19157	0.189079	0.398239	
0.374193	0.331632	0.334643	
0.322691	0.187554	0.276787	
0.278137	0.247763	0.376191	
0.223388	0.316601	0.257498	
-0.323938	-0.380873	0.347739	
-0.252329	-0.26938	0.229497	
-0.161333	-0.314459	0.347253	
-0.182528	-0.349181	0.246007	
0.0593425	-0.191106	0.170296	
0.195794	-0.195794	0.279578	
0.153165	-0.314436	0.187787	
0.166494	-0.172227	0.119812	
-0.493378	0.0811073	0.146993	
-0.345491	0.130711	0.235494	
-0.339187	0.0209536	0.163183	
-0.372288	0.117054	0.109759	
0.285692	-0.172599	0.5	
0.220158	-0.126618	0.388055	
0.330561	-0.223946	0.39789	
0.172223	-0.208401	0.404687	
-0.1808	-0.171958	0.287248	
-0.293731	-0.159381	0.165241	
-0.348281	-0.114759	0.26937	
-0.201128	-0.131883	0.196277	
0.25658	0.429146	0.33124	
0.317206	0.386498	0.299678	
0.278137	0.247763	0.376191	
0.223388	0.316601	0.257498	
0.460548	0.194667	0.23433	
0.3762	0.0879078	0.311936	
0.305435	0.121825	0.172512	
0.405658	0.0360531	0.226292	
0.295217	0.00291132	0.296268	
0.327533	-0.0664701	0.421022	
0.22142	0.00817938	0.394574	
0.251264	-0.0990305	0.284445	
0.116472	-0.275537	0.364096	
0.0700441	-0.20677	0.284029	
0.195794	-0.195794	0.279578	
0.187872	-0.340275	0.296975	
-0.273431	0.0345527	0.245119	
-0.158971	0.0982818	0.323671	
-0.115637	0.0557776	0.228432	
-0.199362	0.0555217	0.187248	
-0.13253	-0.300587	0.178341	
-0.252329	-0.26938	0.229497	
-0.1808	-0.171958	0.287248	
-0.201128	-0.131883	0.196277	
-0.293731	-0.159381	0.165241	
-0.252329	-0.26938	0.229497	
-0.386498	-0.317206	0.200322	
-0.307464	-0.233367	0.0932852	
0.232997	-0.11062	0	
0.245477	-0.191651	0	
0.287303	-0.106912	0.163595	
0.166494	-0.172227	0.119812	
-0.0249018	-0.155268	0.351606	
-0.1108	-0.078009	0.257656	
-0.14418	-0.0987583	0.389626	
-0.0627858	-0.0916667	0.423956	
-0.307691	0.175889	0.353161	
-0.36554	0.108479	0.408539	
-0.450312	0.217299	0.354112	
-0.393116	0.0762957	0.312097	
0.245477	-0.191651	0	
0.287303	-0.106912	0.163595	
0.166494	-0.172227	0.119812	
0.345961	-0.17739	0.102725	
0.133074	0.264097	0	
0.240662	0.264403	0.150106	
0.0897997	0.249573	0.16264	
0.175408	0.155763	0.126683	
-0.05	0.133333	0.5	
-0.139117	0.156778	0.5	
-0.173778	0.167507	0.398056	
-0.0843611	0.070836	0.404426	
0.285692	-0.172599	0.5	
0.210048	-0.166493	0.5	
0.220158	-0.126618	0.388055	
0.172223	-0.208401	0.404687	
0.374193	0.331632	0.334643	
0.376757	0.328716	0.246468	
0.322691	0.187554	0.276787	
0.223388	0.316601	0.257498	
0.285692	-0.172599	0.5	
0.330561	-0.223946	0.39789	
0.240455	-0.234106	0.5	
0.172223	-0.208401	0.404687	
-0.110158	0.209083	0.5	
-0.173778	0.167507	0.398056	
-0.0992017	0.278039	0.399962	
-0.0162135	0.209048	0.397765	
-0.127619	0.285659	0.171874	
-0.0766135	0.239584	0.316589	
-0.0375749	0.231137	0.225021	
-0.11066	0.378543	0.212059	
-0.293731	-0.159381	0.165241	
-0.1808	-0.171958	0.287248	
-0.348281	-0.114759	0.26937	
-0.332305	-0.222015	0.288549	
-0.376393	0.0217786	0.5	
-0.359322	0.070805	0.5	
-0.334766	0.0144004	0.413573	
-0.36554	0.108479	0.408539	
-0.307691	0.175889	0.353161	
-0.345491	0.130711	0.235494	
-0.429476	0.256028	0.291579	
-0.278552	0.259099	0.267592	
0.305435	0.121825	0.172512	
0.272001	0.0982822	0.26656	
0.295217	0.00291132	0.296268	
0.405658	0.0360531	0.226292	
-0.429146	-0.25658	0.16876	
-0.293731	-0.159381	0.165241	
-0.386498	-0.317206	0.200322	
-0.307464	-0.233367	0.0932852	
0.0712814	-0.153152	0	
0.00183684	-0.222331	0	
0.0593425	-0.191106	0.170296	
-0.000733888	-0.121505	0.108367	
-0.0249018	-0.155268	0.351606	
-0.0188474	-0.0311526	0.378242	
-0.1108	-0.078009	0.257656	
-0.0627858	-0.0916667	0.423956	
-0.0188474	-0.0311526	0.378242	
-0.0843611	0.070836	0.404426	
-0.133323	0.00734514	0.338693	
-0.0627858	-0.0916667	0.423956	
-0.234106	-0.240455	0.5	
-0.166493	-0.210048	0.5	
-0.172599	-0.285692	0.5	
-0.204987	-0.16964	0.406672	
-0.344127	-0.112227	0	
-0.278713	-0.14304	0	
-0.376845	-0.0849991	0.114782	
-0.307464	-0.233367	0.0932852	
-0.224353	-0.050686	0.284463	
-0.273431	0.0345527	0.245119	
-0.115637	0.0557776	0.228432	
-0.199362	0.0555217	0.187248	
0.116472	-0.275537	0.364096	
0.0700441	-0.20677	0.284029	
0.187872	-0.340275	0.296975	
0.0597845	-0.282871	0.216064	
0.295217	0.00291132	0.296268	
0.366259	0.00318862	0.135411	
0.305435	0.121825	0.172512	
0.405658	0.0360531	0.226292	
-0.293731	-0.159381	0.165241	
-0.348281	-0.114759	0.26937	
-0.434698	-0.247057	0.249501	
-0.332305	-0.222015	0.288549	
0.234106	0.240455	0.5	
0.172599	0.285692	0.5	
0.278137	0.247763	0.376191	
0.19157	0.189079	0.398239	
-0.166493	-0.210048	0.5	
-0.122747	-0.214953	0.392685	
-0.172599	-0.285692	0.5	
-0.204987	-0.16964	0.406672	
-0.265311	0.22544	0.150174	
-0.345491	0.130711	0.235494	
-0.428104	0.258315	0.196896	
-0.341436	0.209355	0.0876866	
0.184962	0.0799289	0	
0.246838	-0.00334576	0.115071	
0.276476	0.0535537	0	
0.269795	0.177145	0.0946573	
-0.3	0.05	0.5	
-0.233822	0.0792854	0.380146	
-0.334766	0.0144004	0.413573	
-0.36554	0.108479	0.408539	
0.0712814	-0.153152	0	
-0.000733888	-0.121505	0.108367	
0.166494	-0.172227	0.119812	
0.163971	-0.0679077	0.102014	
-0.31384	0.0131388	0.5	
-0.279144	0.0168063	0.5	
-0.307123	-0.0146863	0.5	
-0.334766	0.0144004	0.413573	
0.232997	-0.11062	0	
0.287303	-0.106912	0.163595	
0.245477	-0.191651	0	
0.345961	-0.17739	0.102725	
-0.0249018	-0.155268	0.351606	
-0.122747	-0.214953	0.392685	
-0.05	-0.216667	0.5	
-0.0627858	-0.0916667	0.423956	
0.373696	-0.332191	0.334057	
0.248064	-0.277814	0.232664	
0.240952	-0.280119	0.382753	
0.267469	-0.189723	0.33864	
0.199062	0.200989	0.281957	
0.223388	0.316601	0.257498	
0.240662	0.264403	0.150106	
0.103003	0.248456	0.2762	
-0.1808	-0.171958	0.287248	
-0.348281	-0.114759	0.26937	
-0.275537	-0.116472	0.371913	
-0.224353	-0.050686	0.284463	
-0.214953	0.122747	0.250047	
-0.153413	0.147726	0.129273	
-0.265311	0.22544	0.150174	
[...]
CELL_DATA 5402
POINT_DATA 21608
SCALARS Pressure float 
LOOKUP_TABLE default
9.78277 9.78277 9.78277 9.78277 9.80671 9.80671 9.80671 9.80671 9.90804 9.90804 9.90804 9.90804 9.91075 9.91075 9.91075 9.91075 9.87445 9.87445 9.87445 9.87445 9.49576 9.49576 9.49576 9.49576 10.7153 10.7153 10.7153 10.7153 9.746 9.746 9.746 9.746 10.2513 10.2513 10.2513 10.2513 9.86959 9.86959 9.86959 9.86959 10.0046 10.0046 10.0046 10.0046 9.89097 9.89097 9.89097 9.89097 9.88069 9.88069 9.88069 9.88069 9.84113 9.84113 9.84113 9.84113 9.76428 9.76428 9.76428 9.76428 9.87494 9.87494 9.87494 9.87494 9.87839 9.87839 9.87839 9.87839 8.64188 8.64188 8.64188 8.64188 9.78849 9.78849 9.78849 9.78849 9.50531 9.50531 9.50531 9.50531 9.80505 9.80505 9.80505 9.80505 9.77503 9.77503 9.77503 9.77503 9.76908 9.76908 9.76908 9.76908 9.83949 9.83949 9.83949 9.83949 9.82494 9.82494 9.82494 9.82494 10.7876 10.7876 10.7876 10.7876 9.88165 9.88165 9.88165 9.88165 9.56063 9.56063 9.56063 9.56063 9.65633 9.65633 9.65633 9.65633 9.81377 9.81377 9.81377 9.81377 9.80471 9.80471 9.80471 9.80471 8.18825 8.18825 8.18825 8.18825 9.83629 9.83629 9.83629 9.83629 9.87693 9.87693 9.87693 9.87693 9.78964 9.78964 9.78964 9.78964 10.068 10.068 10.068 10.068 9.85058 9.85058 9.85058 9.85058 9.88526 9.88526 9.88526 9.88526 9.78721 9.78721 9.78721 9.78721 9.82746 9.82746 9.82746 9.82746 10.1581 10.1581 10.1581 10.1581 9.76594 9.76594 9.76594 9.76594 9.84513 9.84513 9.84513 9.84513 9.82801 9.82801 9.82801 9.82801 9.57227 9.57227 9.57227 9.57227 9.75597 9.75597 9.75597 9.75597 9.58146 9.58146 9.58146 9.58146 9.82394 9.82394 9.82394 9.82394 9.85339 9.85339 9.85339 9.85339 9.92505 9.92505 9.92505 9.92505 9.81732 9.81732 9.81732 9.81732 9.86313 9.86313 9.86313 9.86313 9.90285 9.90285 9.90285 9.90285 9.90372 9.90372 9.90372 9.90372 11.7092 11.7092 11.7092 11.7092 10.3099 10.3099 10.3099 10.3099 9.87301 9.87301 9.87301 9.87301 10.1628 10.1628 10.1628 10.1628 9.97662 9.97662 9.97662 9.97662 9.76513 9.76513 9.76513 9.76513 9.8558 9.8558 9.8558 9.8558 10.0271 10.0271 10.0271 10.0271 9.81326 9.81326 9.81326 9.81326 9.77313 9.77313 9.77313 9.77313 9.86844 9.86844 9.86844 9.86844 9.92555 9.92555 9.92555 9.92555 8.76233 8.76233 8.76233 8.76233 7.90576 7.90576 7.90576 7.90576 10.3658 10.3658 10.3658 10.3658 9.93398 9.93398 9.93398 9.93398 9.64654 9.64654 9.64654 9.64654 9.78629 9.78629 9.78629 9.78629 9.87309 9.87309 9.87309 9.87309 9.79075 9.79075 9.79075 9.79075 10.1835 10.1835 10.1835 10.1835 10.3207 10.3207 10.3207 10.3207 9.86078 9.86078 9.86078 9.86078 9.93697 9.93697 9.93697 9.93697 9.80009 9.80009 9.80009 9.80009 9.86906 9.86906 9.86906 9.86906 3.70493 3.70493 3.70493 3.70493 9.95506 9.95506 9.95506 9.95506 9.77919 9.77919 9.77919 9.77919 9.88319 9.88319 9.88319 9.88319 9.83285 9.83285 9.83285 9.83285 9.71262 9.71262 9.71262 9.71262 9.82367 9.82367 9.82367 9.82367 9.87588 9.87588 9.87588 9.87588 9.70303 9.70303 9.70303 9.70303 10.2965 10.2965 10.2965 10.2965 9.76282 9.76282 9.76282 9.76282 9.87165 9.87165 9.87165 9.87165 9.47577 9.47577 9.47577 9.47577 9.89855 9.89855 9.89855 9.89855 9.80916 9.80916 9.80916 9.80916 9.97234 9.97234 9.97234 9.97234 9.86462 9.86462 9.86462 9.86462 9.74145 9.74145 9.74145 9.74145 9.88764 9.88764 9.88764 9.88764 9.82089 9.82089 9.82089 9.82089 9.69168 9.69168 9.69168 9.69168 9.80952 9.80952 9.80952 9.80952 9.7997 9.7997 9.7997 9.7997 9.59386 9.59386 9.59386 9.59386 11.9221 11.9221 11.9221 11.9221 10.0905 10.0905 10.0905 10.0905 11.7137 11.7137 11.7137 11.7137 9.85114 9.85114 9.85114 9.85114 9.81151 9.81151 9.81151 9.81151 9.22864 9.22864 9.22864 9.22864 9.84324 9.84324 9.84324 9.84324 5.78757 5.78757 5.78757 5.78757 9.94834 9.94834 9.94834 9.94834 4.25024 4.25024 4.25024 4.25024 9.56285 9.56285 9.56285 9.56285 10.0521 10.0521 10.0521 10.0521 11.338 11.338 11.338 11.338 8.49568 8.49568 8.49568 8.49568 9.82724 9.82724 9.82724 9.82724 10.0229 10.0229 10.0229 10.0229 9.81803 9.81803 9.81803 9.81803 9.8153 9.8153 9.8153 9.8153 9.7627 9.7627 9.7627 9.7627 9.75502 9.75502 9.75502 9.75502 9.78962 9.78962 9.78962 9.78962 9.84696 9.84696 9.84696 9.84696 9.8856 9.8856 9.8856 9.8856 9.91614 9.91614 9.91614 9.91614 10.0469 10.0469 10.0469 10.0469 7.95173 7.95173 7.95173 7.95173 7.92208 7.92208 7.92208 7.92208 9.80215 9.80215 9.80215 9.80215 9.72856 9.72856 9.72856 9.72856 9.86823 9.86823 9.86823 9.86823 9.72943 9.72943 9.72943 9.72943 9.83423 9.83423 9.83423 9.83423 9.91158 9.91158 9.91158 9.91158 9.77143 9.77143 9.77143 9.77143 9.89873 9.89873 9.89873 9.89873 9.8453 9.8453 9.8453 9.8453 9.93967 9.93967 9.93967 9.93967 9.88568 9.88568 9.88568 9.88568 11.3064 11.3064 11.3064 11.3064 9.18173 9.18173 9.18173 9.18173 10.3014 10.3014 10.3014 10.3014 9.82168 9.82168 9.82168 9.82168 9.60906 9.60906 9.60906 9.60906 9.91106 9.91106 9.91106 9.91106 9.96565 9.96565 9.96565 9.96565 9.89932 9.89932 9.89932 9.89932 9.86981 9.86981 9.86981 9.86981 9.9095 9.9095 9.9095 9.9095 9.96602 9.96602 9.96602 9.96602 9.89468 9.89468 9.89468 9.89468 9.75306 9.75306 9.75306 9.75306 9.85637 9.85637 9.85637 9.85637 9.97102 9.97102 9.97102 9.97102 9.88343 9.88343 9.88343 9.88343 5.38549 5.38549 5.38549 5.38549 10.0828 10.0828 10.0828 10.0828 9.83666 9.83666 9.83666 9.83666 9.89078 9.89078 9.89078 9.89078 9.76368 9.76368 9.76368 9.76368 9.97651 9.97651 9.97651 9.97651 9.8812 9.8812 9.8812 9.8812 9.92229 9.92229 9.92229 9.92229 9.85986 9.85986 9.85986 9.85986 9.69088 9.69088 9.69088 9.69088 9.81116 9.81116 9.81116 9.81116 8.60905 8.60905 8.60905 8.60905 8.96234 8.96234 8.96234 8.96234 9.8652 9.8652 9.8652 9.8652 9.61138 9.61138 9.61138 9.61138 9.74584 9.74584 9.74584 9.74584 9.3255 9.3255 9.3255 9.3255 8.04284 8.04284 8.04284 8.04284 10.6441 10.6441 10.6441 10.6441 10.2719 10.2719 10.2719 10.2719 9.84933 9.84933 9.84933 9.84933 9.9314 9.9314 9.9314 9.9314 9.6544 9.6544 9.6544 9.6544 9.8056 9.8056 9.8056 9.8056 9.91253 9.91253 9.91253 9.91253 9.45466 9.45466 9.45466 9.45466 8.73639 8.73639 8.73639 8.73639 12.1622 12.1622 12.1622 12.1622 9.95278 9.95278 9.95278 9.95278 9.86827 9.86827 9.86827 9.86827 10.5173 10.5173 10.5173 10.5173 9.89022 9.89022 9.89022 9.89022 9.85746 9.85746 9.85746 9.85746 10.3867 10.3867 10.3867 10.3867 9.80136 9.80136 9.80136 9.80136 9.77637 9.77637 9.77637 9.77637 9.79913 9.79913 9.79913 9.79913 9.87828 9.87828 9.87828 9.87828 9.80666 9.80666 9.80666 9.80666 9.85303 9.85303 9.85303 9.85303 9.84508 9.84508 9.84508 9.84508 10.2621 10.2621 10.2621 10.2621 9.81399 9.81399 9.81399 9.81399 9.8965 9.8965 9.8965 9.8965 11.7554 11.7554 11.7554 11.7554 9.92534 9.92534 9.92534 9.92534 10.1436 10.1436 10.1436 10.1436 10.0099 10.0099 10.0099 10.0099 8.71658 8.71658 8.71658 8.71658 9.83253 9.83253 9.83253 9.83253 9.57861 9.57861 9.57861 9.57861 9.80061 9.80061 9.80061 9.80061 10.5626 10.5626 10.5626 10.5626 9.15686 9.15686 9.15686 9.15686 3.68259 3.68259 3.68259 3.68259 9.87416 9.87416 9.87416 9.87416 9.89683 9.89683 9.89683 9.89683 9.52327 9.52327 9.52327 9.52327 10.6249 10.6249 10.6249 10.6249 9.86687 9.86687 9.86687 9.86687 10.6505 10.6505 10.6505 10.6505 9.90341 9.90341 9.90341 9.90341 9.50272 9.50272 9.50272 9.50272 9.33663 9.33663 9.33663 9.33663 9.65966 9.65966 9.65966 9.65966 9.76656 9.76656 9.76656 9.76656 9.78553 9.78553 9.78553 9.78553 9.79325 9.79325 9.79325 9.79325 8.51862 8.51862 8.51862 8.51862 9.8388 9.8388 9.8388 9.8388 9.92714 9.92714 9.92714 9.92714 10.4095 10.4095 10.4095 10.4095 9.84754 9.84754 9.84754 9.84754 9.70616 9.70616 9.70616 9.70616 9.70493 9.70493 9.70493 9.70493 9.89709 9.89709 9.89709 9.89709 9.7007 9.7007 9.7007 9.7007 9.69945 9.69945 9.69945 9.69945 9.92427 9.92427 9.92427 9.92427 9.78839 9.78839 9.78839 9.78839 9.8201 9.8201 9.8201 9.8201 5.09401 5.09401 5.09401 5.09401 9.80543 9.80543 9.80543 9.80543 13.4904 13.4904 13.4904 13.4904 9.89676 9.89676 9.89676 9.89676 9.45145 9.45145 9.45145 9.45145 8.98867 8.98867 8.98867 8.98867 9.81678 9.81678 9.81678 9.81678 9.8893 9.8893 9.8893 9.8893 7.25382 7.25382 7.25382 7.25382 9.78818 9.78818 9.78818 9.78818 9.88359 9.88359 9.88359 9.88359 10.3031 10.3031 10.3031 10.3031 9.97491 9.97491 9.97491 9.97491 9.91463 9.91463 9.91463 9.91463 10.3032 10.3032 10.3032 10.3032 9.78953 9.78953 9.78953 9.78953 9.72007 9.72007 9.72007 9.72007 9.59546 9.59546 9.59546 9.59546 10.1451 10.1451 10.1451 10.1451 9.63798 9.63798 9.63798 9.63798 9.91444 9.91444 9.91444 9.91444 9.84751 9.84751 9.84751 9.84751 9.91211 9.91211 9.91211 9.91211 9.91074 9.91074 9.91074 9.91074 9.86707 9.86707 9.86707 9.86707 9.74855 9.74855 9.74855 9.74855 9.53067 9.53067 9.53067 9.53067 9.78101 9.78101 9.78101 9.78101 10.2649 10.2649 10.2649 10.2649 9.03615 9.03615 9.03615 9.03615 9.851 9.851 9.851 9.851 9.80534 9.80534 9.80534 9.80534 9.35598 9.35598 9.35598 9.35598 9.7742 9.7742 9.7742 9.7742 9.79652 9.79652 9.79652 9.79652 9.88209 9.88209 9.88209 9.88209 9.56542 9.56542 9.56542 9.56542 9.82987 9.82987 9.82987 9.82987 9.77922 9.77922 9.77922 9.77922 9.90733 9.90733 9.90733 9.90733 9.79624 9.79624 9.79624 9.79624 9.30146 9.30146 9.30146 9.30146 10.0153 10.0153 10.0153 10.0153 9.78084 9.78084 9.78084 9.78084 9.6853 9.6853 9.6853 9.6853 9.43237 9.43237 9.43237 9.43237 7.93277 7.93277 7.93277 7.93277 9.62424 9.62424 9.62424 9.62424 10.0886 10.0886 10.0886 10.0886 9.87439 9.87439 9.87439 9.87439 9.77629 9.77629 9.77629 9.77629 10.6922 10.6922 10.6922 10.6922 9.73106 9.73106 9.73106 9.73106 9.83246 9.83246 9.83246 9.83246 10.579 10.579 10.579 10.579 9.74094 9.74094 9.74094 9.74094 9.96693 9.96693 9.96693 9.96693 9.9352 9.9352 9.9352 9.9352 9.89716 9.89716 9.89716 9.89716 10.2783 10.2783 10.2783 10.2783 10.1297 10.1297 10.1297 10.1297 9.5098 9.5098 9.5098 9.5098 7.50244 7.50244 7.50244 7.50244 9.77882 9.77882 9.77882 9.77882 9.33797 9.33797 9.33797 9.33797 9.90759 9.90759 9.90759 9.90759 9.88945 9.88945 9.88945 9.88945 8.49476 8.49476 8.49476 8.49476 9.78041 9.78041 9.78041 9.78041 10.218 10.218 10.218 10.218 8.58522 8.58522 8.58522 8.58522 9.49121 9.49121 9.49121 9.49121 9.9247 9.9247 9.9247 9.9247 5.17216 5.17216 5.17216 5.17216 5.22005 5.22005 5.22005 5.22005 10.069 10.069 10.069 10.069 9.39383 9.39383 9.39383 9.39383 9.87796 9.87796 9.87796 9.87796 12.1148 12.1148 12.1148 12.1148 8.72253 8.72253 8.72253 8.72253 9.8276 9.8276 9.8276 9.8276 9.95624 9.95624 9.95624 9.95624 9.83635 9.83635 9.83635 9.83635 9.96649 9.96649 9.96649 9.96649 9.87691 9.87691 9.87691 9.87691 9.80471 9.80471 9.80471 9.80471 9.8621 9.8621 9.8621 9.8621 9.76592 9.76592 9.76592 9.76592 10.387 10.387 10.387 10.387 10.2427 10.2427 10.2427 10.2427 9.95243 9.95243 9.95243 9.95243 9.58697 9.58697 9.58697 9.58697 9.86623 9.86623 9.86623 9.86623 9.91995 9.91995 9.91995 9.91995 7.12847 7.12847 7.12847 7.12847 9.90564 9.90564 9.90564 9.90564 8.42361 8.42361 8.42361 8.42361 9.81288 9.81288 9.81288 9.81288 9.92227 9.92227 9.92227 9.92227 9.84484 9.84484 9.84484 9.84484 9.87545 9.87545 9.87545 9.87545 9.9438 9.9438 9.9438 9.9438 9.88212 9.88212 9.88212 9.88212 9.85125 9.85125 9.85125 9.85125 9.93453 9.93453 9.93453 9.93453 9.87072 9.87072 9.87072 9.87072 9.96107 9.96107 9.96107 9.96107 9.75052 9.75052 9.75052 9.75052 9.98967 9.98967 9.98967 9.98967 9.78269 9.78269 9.78269 9.78269 9.88218 9.88218 9.88218 9.88218 10.291 10.291 10.291 10.291 13.2608 13.2608 13.2608 13.2608 9.74144 9.74144 9.74144 9.74144 9.93614 9.93614 9.93614 9.93614 9.82728 9.82728 9.82728 9.82728 9.94112 9.94112 9.94112 9.94112 9.89938 9.89938 9.89938 9.89938 9.8777 9.8777 9.8777 9.8777 9.81211 9.81211 9.81211 9.81211 9.82648 9.82648 9.82648 9.82648 9.83365 9.83365 9.83365 9.83365 9.68956 9.68956 9.68956 9.68956 9.90031 9.90031 9.90031 9.90031 9.86924 9.86924 9.86924 9.86924 9.85634 9.85634 9.85634 9.85634 9.9905 9.9905 9.9905 9.9905 10.1568 10.1568 10.1568 10.1568 9.87842 9.87842 9.87842 9.87842 9.77605 9.77605 9.77605 9.77605 9.92556 9.92556 9.92556 9.92556 10.0442 10.0442 10.0442 10.0442 9.82744 9.82744 9.82744 9.82744 9.91847 9.91847 9.91847 9.91847 9.83781 9.83781 9.83781 9.83781 8.64727 8.64727 8.64727 8.64727 9.83938 9.83938 9.83938 9.83938 9.84488 9.84488 9.84488 9.84488 9.84764 9.84764 9.84764 9.84764 10.0085 10.0085 10.0085 10.0085 9.84784 9.84784 9.84784 9.84784 9.85788 9.85788 9.85788 9.85788 9.90871 9.90871 9.90871 9.90871 9.40673 9.40673 9.40673 9.40673 9.7489 9.7489 9.7489 9.7489 9.95675 9.95675 9.95675 9.95675 6.80667 6.80667 6.80667 6.80667 8.47754 8.47754 8.47754 8.47754 9.89 9.89 9.89 9.89 5.11663 5.11663 5.11663 5.11663 8.22585 8.22585 8.22585 8.22585 9.95006 9.95006 9.95006 9.95006 9.15856 9.15856 9.15856 9.15856 9.89564 9.89564 9.89564 9.89564 9.80771 9.80771 9.80771 9.80771 9.71946 9.71946 9.71946 9.71946 9.97412 9.97412 9.97412 9.97412 9.86667 9.86667 9.86667 9.86667 9.84335 9.84335 9.84335 9.84335 10.169 10.169 10.169 10.169 9.95174 9.95174 9.95174 9.95174 9.76925 9.76925 9.76925 9.76925 9.82879 9.82879 9.82879 9.82879 9.89207 9.89207 9.89207 9.89207 9.91674 9.91674 9.91674 9.91674 9.85079 9.85079 9.85079 9.85079 8.3025 8.3025 8.3025 8.3025 9.90623 9.90623 9.90623 9.90623 9.84141 9.84141 9.84141 9.84141 9.93342 9.93342 9.93342 9.93342 9.62724 9.62724 9.62724 9.62724 9.76771 9.76771 9.76771 9.76771 9.75264 9.75264 9.75264 9.75264 9.98102 9.98102 9.98102 9.98102 10.4942 10.4942 10.4942 10.4942 9.82176 9.82176 9.82176 9.82176 9.89531 9.89531 9.89531 9.89531 9.72979 9.72979 9.72979 9.72979 6.61113 6.61113 6.61113 6.61113 9.84224 9.84224 9.84224 9.84224 9.84659 9.84659 9.84659 9.84659 11.0543 11.0543 11.0543 11.0543 9.92718 9.92718 9.92718 9.92718 9.80066 9.80066 9.80066 9.80066 9.96989 9.96989 9.96989 9.96989 9.6796 9.6796 9.6796 9.6796 11.0985 11.0985 11.0985 11.0985 9.3605 9.3605 9.3605 9.3605 9.92123 9.92123 9.92123 9.92123 9.90913 9.90913 9.90913 9.90913 11.197 11.197 11.197 11.197 9.81219 9.81219 9.81219 9.81219 9.9006 9.9006 9.9006 9.9006 10.245 10.245 10.245 10.245 9.93748 9.93748 9.93748 9.93748 9.94676 9.94676 9.94676 9.94676 9.47819 9.47819 9.47819 9.47819 9.90181 9.90181 9.90181 9.90181 9.88947 9.88947 9.88947 9.88947 9.86285 9.86285 9.86285 9.86285 9.83699 9.83699 9.83699 9.83699 9.91176 9.91176 9.91176 9.91176 9.97421 9.97421 9.97421 9.97421 9.91271 9.91271 9.91271 9.91271 9.93303 9.93303 9.93303 9.93303 9.7763 9.7763 9.7763 9.7763 9.81124 9.81124 9.81124 9.81124 9.52748 9.52748 9.52748 9.52748 9.88399 9.88399 9.88399 9.88399 9.81525 9.81525 9.81525 9.81525 9.89549 9.89549 9.89549 9.89549 9.92753 9.92753 9.92753 9.92753 9.6776 9.6776 9.6776 9.6776 9.77857 9.77857 9.77857 9.77857 9.80798 9.80798 9.80798 9.80798 9.98681 9.98681 9.98681 9.98681 9.81715 9.81715 9.81715 9.81715 9.73197 9.73197 9.73197 9.73197 10.4784 10.4784 10.4784 10.4784 9.88443 9.88443 9.88443 9.88443 9.48068 9.48068 9.48068 9.48068 9.60834 9.60834 9.60834 9.60834 9.92752 9.92752 9.92752 9.92752 9.95411 9.95411 9.95411 9.95411 9.86426 9.86426 9.86426 9.86426 9.53944 9.53944 9.53944 9.53944 9.92146 9.92146 9.92146 9.92146 9.9221 9.9221 9.9221 9.9221 9.83347 9.83347 9.83347 9.83347 9.83047 9.83047 9.83047 9.83047 9.85892 9.85892 9.85892 9.85892 9.73075 9.73075 9.73075 9.73075 9.836 9.836 9.836 9.836 9.7115 9.7115 9.7115 9.7115 9.92515 9.92515 9.92515 9.92515 9.31068 9.31068 9.31068 9.31068 9.6052 9.6052 9.6052 9.6052 9.829 9.829 9.829 9.829 10.0228 10.0228 10.0228 10.0228 9.89116 9.89116 9.89116 9.89116 10.4287 10.4287 10.4287 10.4287 9.81159 9.81159 9.81159 9.81159 9.97319 9.97319 9.97319 9.97319 9.67799 9.67799 9.67799 9.67799 9.88568 9.88568 9.88568 9.88568 9.87462 9.87462 9.87462 9.87462 9.73115 9.73115 9.73115 9.73115 9.80165 9.80165 9.80165 9.80165 7.50682 7.50682 7.50682 7.50682 9.8172 9.8172 9.8172 9.8172 9.89511 9.89511 9.89511 9.89511 9.84955 9.84955 9.84955 9.84955 3.26481 3.26481 3.26481 3.26481 7.24346 7.24346 7.24346 7.24346 9.58458 9.58458 9.58458 9.58458 9.40712 9.40712 9.40712 9.40712 9.65875 9.65875 9.65875 9.65875 9.91554 9.91554 9.91554 9.91554 10.0828 10.0828 10.0828 10.0828 9.84478 9.84478 9.84478 9.84478 9.92611 9.92611 9.92611 9.92611 9.50981 9.50981 9.50981 9.50981 9.79787 9.79787 9.79787 9.79787 9.6511 9.6511 9.6511 9.6511 9.89599 9.89599 9.89599 9.89599 11.6239 11.6239 11.6239 11.6239 9.73937 9.73937 9.73937 9.73937 9.25448 9.25448 9.25448 9.25448 9.85161 9.85161 9.85161 9.85161 9.84605 9.84605 9.84605 9.84605 9.89071 9.89071 9.89071 9.89071 9.79117 9.79117 9.79117 9.79117 9.95061 9.95061 9.95061 9.95061 9.75651 9.75651 9.75651 9.75651 10.5399 10.5399 10.5399 10.5399 9.56381 9.56381 9.56381 9.56381 9.86332 9.86332 9.86332 9.86332 9.84695 9.84695 9.84695 9.84695 9.79595 9.79595 9.79595 9.79595 10.0281 10.0281 10.0281 10.0281 9.85657 9.85657 9.85657 9.85657 9.86124 9.86124 9.86124 9.86124 9.82718 9.82718 9.82718 9.82718 9.77105 9.77105 9.77105 9.77105 9.88991 9.88991 9.88991 9.88991 9.95388 9.95388 9.95388 9.95388 9.99637 9.99637 9.99637 9.99637 9.75845 9.75845 9.75845 9.75845 9.86685 9.86685 9.86685 9.86685 9.83958 9.83958 9.83958 9.83958 9.95326 9.95326 9.95326 9.95326 9.89794 9.89794 9.89794 9.89794 9.76596 9.76596 9.76596 9.76596 9.90212 9.90212 9.90212 9.90212 9.68509 9.68509 9.68509 9.68509 9.8514 9.8514 9.8514 9.8514 9.75281 9.75281 9.75281 9.75281 9.80394 9.80394 9.80394 9.80394 9.85537 9.85537 9.85537 9.85537 9.83866 9.83866 9.83866 9.83866 9.79981 9.79981 9.79981 9.79981 9.94525 9.94525 9.94525 9.94525 14.4665 14.4665 14.4665 14.4665 10.3213 10.3213 10.3213 10.3213 9.81166 9.81166 9.81166 9.81166 9.99574 9.99574 9.99574 9.99574 9.84111 9.84111 9.84111 9.84111 9.95237 9.95237 9.95237 9.95237 9.82189 9.82189 9.82189 9.82189 9.85428 9.85428 9.85428 9.85428 9.91975 9.91975 9.91975 9.91975 10.1234 10.1234 10.1234 10.1234 9.95983 9.95983 9.95983 9.95983 9.89485 9.89485 9.89485 9.89485 9.85206 9.85206 9.85206 9.85206 9.84919 9.84919 9.84919 9.84919 9.73801 9.73801 9.73801 9.73801 9.84475 9.84475 9.84475 9.84475 9.86461 9.86461 9.86461 9.86461 10.018 10.018 10.018 10.018 9.87662 9.87662 9.87662 9.87662 9.86271 9.86271 9.86271 9.86271 9.85644 9.85644 9.85644 9.85644 9.74828 9.74828 9.74828 9.74828 9.9782 9.9782 9.9782 9.9782 9.75745 9.75745 9.75745 9.75745 9.8434 9.8434 9.8434 9.8434 9.79827 9.79827 9.79827 9.79827 9.75022 9.75022 9.75022 9.75022 9.8754 9.8754 9.8754 9.8754 9.8423 9.8423 9.8423 9.8423 9.85275 9.85275 9.85275 9.85275 13.1183 13.1183 13.1183 13.1183 9.91753 9.91753 9.91753 9.91753 10.4253 10.4253 10.4253 10.4253 9.9143 9.9143 9.9143 9.9143 9.85649 9.85649 9.85649 9.85649 4.08108 4.08108 4.08108 4.08108 9.84571 9.84571 9.84571 9.84571 9.8656 9.8656 9.8656 9.8656 9.85814 9.85814 9.85814 9.85814 9.74447 9.74447 9.74447 9.74447 2.99399 2.99399 2.99399 2.99399 9.85896 9.85896 9.85896 9.85896 9.91454 9.91454 9.91454 9.91454 9.72745 9.72745 9.72745 9.72745 9.78507 9.78507 9.78507 9.78507 9.93599 9.93599 9.93599 9.93599 9.72185 9.72185 9.72185 9.72185 9.88579 9.88579 9.88579 9.88579 10.1476 10.1476 10.1476 10.1476 9.85109 9.85109 9.85109 9.85109 7.25058 7.25058 7.25058 7.25058 9.42877 9.42877 9.42877 9.42877 9.78422 9.78422 9.78422 9.78422 9.76 9.76 9.76 9.76 9.76481 9.76481 9.76481 9.76481 9.57708 9.57708 9.57708 9.57708 9.13483 9.13483 9.13483 9.13483 9.84634 9.84634 9.84634 9.84634 9.74087 9.74087 9.74087 9.74087 6.40604 6.40604 6.40604 6.40604 9.81085 9.81085 9.81085 9.81085 9.8282 9.8282 9.8282 9.8282 9.88402 9.88402 9.88402 9.88402 9.82005 9.82005 9.82005 9.82005 9.59388 9.59388 9.59388 9.59388 9.7315 9.7315 9.7315 9.7315 9.91797 9.91797 9.91797 9.91797 9.94739 9.94739 9.94739 9.94739 9.80023 9.80023 9.80023 9.80023 9.74291 9.74291 9.74291 9.74291 9.92549 9.92549 9.92549 9.92549 9.39596 9.39596 9.39596 9.39596 9.95601 9.95601 9.95601 9.95601 10.2068 10.2068 10.2068 10.2068 9.78612 9.78612 9.78612 9.78612 10.0383 10.0383 10.0383 10.0383 8.55058 8.55058 8.55058 8.55058 9.74819 9.74819 9.74819 9.74819 9.24828 9.24828 9.24828 9.24828 10.3087 10.3087 10.3087 10.3087 9.86009 9.86009 9.86009 9.86009 10.2286 10.2286 10.2286 10.2286 9.79338 9.79338 9.79338 9.79338 9.9672 9.9672 9.9672 9.9672 9.77241 9.77241 9.77241 9.77241 9.86424 9.86424 9.86424 9.86424 10.2032 10.2032 10.2032 10.2032 12.8067 12.8067 12.8067 12.8067 9.62727 9.62727 9.62727 9.62727 9.6948 9.6948 9.6948 9.6948 9.84433 9.84433 9.84433 9.84433 9.9