# vtk DataFile Version 3.0
vtk output
ASCII
DATASET UNSTRUCTURED_GRID
POINTS 10614 float
2.81864	1.10627	0	
2.75	1.20096	0	
2.70324	1.11275	0	
2.81323	0.414097	0	
2.91001	0.357804	0	
2.91458	0.454203	0	
2.905	1.96391	0	
2.84979	2.06272	0	
2.79949	1.97915	0	
0.0950001	1.96391	0	
0.2	1.98038	0	
0.150144	2.06273	0	
0.3	1.28756	0	
0.186477	1.29433	0	
0.25	1.20096	0	
2.70447	1.28964	0	
2.75	1.20096	0	
2.81896	1.29509	0	
0.0897949	1.05552	0	
0.186458	1.10941	0	
0.0866808	1.15065	0	
0.185884	1.80464	0	
0.0866025	1.85	0	
0.0893224	1.7521	0	
2.9134	1.85	0	
2.81421	1.80465	0	
2.91405	1.75321	0	
0.181703	0.597281	0	
0.251861	0.509753	0	
0.297436	0.595537	0	
2.91001	0.357804	0	
2.81323	0.414097	0	
2.8339	0.321029	0	
2.8506	2.24376	0	
2.90943	2.34082	0	
2.8009	2.33019	0	
2.51667	0.252595	0	
2.4	0.248334	0	
2.48539	0.167931	0	
2.48539	0.167931	0	
2.4	0.248334	0	
2.39708	0.152086	0	
2.01667	0.25268	0	
1.9235	0.247919	0	
1.9974	0.161722	0	
1.9974	0.161722	0	
1.9235	0.247919	0	
1.89002	0.165554	0	
1.45275	0.163189	0	
1.36513	0.16103	0	
1.4421	0.077765	0	
1.4421	0.077765	0	
1.36513	0.16103	0	
1.34134	0.0779261	0	
0.731982	0.081988	0	
0.65	0.161731	0	
0.646396	0.0660644	0	
0.752579	0.163165	0	
0.65	0.161731	0	
0.731982	0.081988	0	
2.84979	2.06272	0	
2.905	1.96391	0	
2.93249	2.05147	0	
0.0950001	1.96391	0	
0.150144	2.06273	0	
0.0673985	2.05145	0	
0.25	0.681347	0	
0.181703	0.597281	0	
0.297436	0.595537	0	
2.75214	1.37712	0	
2.70447	1.28964	0	
2.81896	1.29509	0	
2.7508	1.02621	0	
2.81864	1.10627	0	
2.70324	1.11275	0	
0.186458	1.10941	0	
0.0897949	1.05552	0	
0.166735	1.01677	0	
0.186477	1.29433	0	
0.3	1.28756	0	
0.25713	1.37519	0	
0.1	0	0	
0.2	0	0	
0.161796	0.0922337	0	
2.75	1.20096	0	
2.81864	1.10627	0	
2.84384	1.20056	0	
0.0875882	2.33733	0	
0.14219	2.24142	0	
0.190045	2.3295	0	
0.185884	1.80464	0	
0.0893224	1.7521	0	
0.165303	1.71227	0	
2.91405	1.75321	0	
2.81421	1.80465	0	
2.8412	1.69251	0	
2.90943	2.34082	0	
2.8506	2.24376	0	
2.93387	2.24722	0	
0.25	1.20096	0	
0.186477	1.29433	0	
0.159348	1.20076	0	
2.81896	1.29509	0	
2.75	1.20096	0	
2.84384	1.20056	0	
2.59639	0.176746	0	
2.68879	0.239262	0	
2.60037	0.268668	0	
2.4	0.248334	0	
2.3	0.173205	0	
2.39708	0.152086	0	
2.3	0.173205	0	
2.4	0.248334	0	
2.3	0.269041	0	
2.2	0.248334	0	
2.1	0.173205	0	
2.2	0.152543	0	
2.1	0.173205	0	
2.2	0.248334	0	
2.10333	0.269791	0	
1.7	0.34641	0	
1.78919	0.412709	0	
1.68919	0.42866	0	
1.14436	0.263222	0	
1.23919	0.325647	0	
1.14671	0.353826	0	
0.65	0.161731	0	
0.55	0.0866025	0	
0.646396	0.0660644	0	
0.55	0.0866025	0	
0.65	0.161731	0	
0.55	0.182394	0	
0.45	0.161731	0	
0.35	0.0866025	0	
0.45	0.0669873	0	
0.35	0.0866025	0	
0.45	0.161731	0	
0.352555	0.182608	0	
2.83952	0.0905932	0	
2.75524	0.162368	0	
2.74275	0.0777623	0	
2.51667	0.252595	0	
2.59639	0.176746	0	
2.60037	0.268668	0	
2.59639	0.176746	0	
2.51667	0.252595	0	
2.48539	0.167931	0	
2.2	0.248334	0	
2.3	0.173205	0	
2.3	0.269041	0	
2.3	0.173205	0	
2.2	0.248334	0	
2.2	0.152543	0	
2.01667	0.25268	0	
2.1	0.173205	0	
2.10333	0.269791	0	
2.1	0.173205	0	
2.01667	0.25268	0	
1.9974	0.161722	0	
1.53919	0.0958918	0	
1.45275	0.163189	0	
1.4421	0.077765	0	
1.14436	0.263222	0	
1.05	0.334936	0	
1.05164	0.242114	0	
1.05	0.334936	0	
1.14436	0.263222	0	
1.14671	0.353826	0	
0.989149	0.179188	0	
0.899369	0.241805	0	
0.899921	0.156712	0	
0.839315	0.093894	0	
0.752579	0.163165	0	
0.731982	0.081988	0	
0.45	0.161731	0	
0.55	0.0866025	0	
0.55	0.182394	0	
0.55	0.0866025	0	
0.45	0.161731	0	
0.45	0.0669873	0	
0.899369	0.241805	0	
0.989149	0.179188	0	
0.978327	0.263802	0	
0.752579	0.163165	0	
0.839315	0.093894	0	
0.833891	0.179624	0	
2.68879	0.239262	0	
2.59639	0.176746	0	
2.67729	0.155567	0	
1.78919	0.412709	0	
1.7	0.34641	0	
1.77945	0.325517	0	
1.23919	0.325647	0	
1.14436	0.263222	0	
1.2243	0.244972	0	
1.45275	0.163189	0	
1.53919	0.0958918	0	
1.52974	0.182838	0	
2.75524	0.162368	0	
2.83952	0.0905932	0	
2.83961	0.178517	0	
2.80156	2.15325	0	
2.90934	2.15154	0	
2.8506	2.24376	0	
0.247913	2.41439	0	
0.190045	2.3295	0	
0.297343	2.328	0	
2.79495	1.46024	0	
2.89923	1.45455	0	
2.83189	1.53692	0	
0.14219	2.24142	0	
0.0875882	2.33733	0	
0.06187	2.25	0	
0.1	0	0	
0.161796	0.0922337	0	
0.0732051	0.0732051	0	
0.206742	0.942296	0	
0.100424	0.946359	0	
0.167949	0.864915	0	
2.9001	0.945957	0	
2.79662	0.942542	0	
2.83205	0.864915	0	
0.08858	2.15128	0	
0.198719	2.15346	0	
0.14219	2.24142	0	
0.0866025	1.85	0	
0.185884	1.80464	0	
0.16148	1.89962	0	
2.81421	1.80465	0	
2.9134	1.85	0	
2.8385	1.89956	0	
0.08858	2.15128	0	
0.150144	2.06273	0	
0.198719	2.15346	0	
2.90934	2.15154	0	
2.80156	2.15325	0	
2.84979	2.06272	0	
0.348531	2.24111	0	
0.241187	2.24569	0	
0.298074	2.15464	0	
0.190045	2.3295	0	
0.241187	2.24569	0	
0.297343	2.328	0	
0.251861	0.509753	0	
0.181703	0.597281	0	
0.163512	0.495241	0	
2.89902	0.251072	0	
2.8	0.248334	0	
2.83961	0.178517	0	
2.8009	2.33019	0	
2.90943	2.34082	0	
2.84645	2.4175	0	
2.89923	1.45455	0	
2.91908	1.5574	0	
2.83189	1.53692	0	
2.8	0.248334	0	
2.89902	0.251072	0	
2.8339	0.321029	0	
0.0866808	1.15065	0	
0.186458	1.10941	0	
0.159348	1.20076	0	
2.78954	0.777547	0	
2.84603	0.693858	0	
2.86295	0.785858	0	
2.84603	0.693858	0	
2.92657	0.748203	0	
2.86295	0.785858	0	
0.241187	2.24569	0	
0.198719	2.15346	0	
0.298074	2.15464	0	
0.100424	0.946359	0	
0.0796603	0.844152	0	
0.167949	0.864915	0	
2.92056	0.844766	0	
2.9001	0.945957	0	
2.83205	0.864915	0	
0.241187	2.24569	0	
0.348531	2.24111	0	
0.297343	2.328	0	
0.100424	0.946359	0	
0.206742	0.942296	0	
0.166735	1.01677	0	
0.2	1.98038	0	
0.0950001	1.96391	0	
0.16148	1.89962	0	
2.905	1.96391	0	
2.79949	1.97915	0	
2.8385	1.89956	0	
2.81323	0.414097	0	
2.91458	0.454203	0	
2.84465	0.521642	0	
0.0992698	1.6456	0	
0.204861	1.63908	0	
0.165303	1.71227	0	
2.89923	1.45455	0	
2.79495	1.46024	0	
2.83574	1.3874	0	
2.79662	0.942542	0	
2.9001	0.945957	0	
2.83643	1.01669	0	
0.14219	2.24142	0	
0.198719	2.15346	0	
0.241187	2.24569	0	
0.204861	1.63908	0	
0.0992698	1.6456	0	
0.158405	1.57344	0	
0.166142	1.40241	0	
0.186477	1.29433	0	
0.25713	1.37519	0	
1.24572	0.0818857	0	
1.34134	0.0779261	0	
1.27841	0.162372	0	
1.68919	0.42866	0	
1.59572	0.42663	0	
1.6243	0.349772	0	
1.79567	0.168531	0	
1.89002	0.165554	0	
1.82792	0.247963	0	
2.64572	0.0818857	0	
2.74275	0.0777623	0	
2.67729	0.155567	0	
0.14219	2.24142	0	
0.241187	2.24569	0	
0.190045	2.3295	0	
2.8506	2.24376	0	
2.90934	2.15154	0	
2.93387	2.24722	0	
0.35	0.0866025	0	
0.257408	0.160839	0	
0.253841	0.0679351	0	
0.257408	0.160839	0	
0.305366	0.253288	0	
0.22487	0.254945	0	
0.190045	2.3295	0	
0.247913	2.41439	0	
0.152907	2.41774	0	
2.92086	1.65219	0	
2.8412	1.69251	0	
2.86133	1.60691	0	
0.7	2.15359	0	
0.75	2.24019	0	
0.65	2.24019	0	
0.7	2.15359	0	
0.8	2.15359	0	
0.75	2.24019	0	
0.298074	2.15464	0	
0.350002	2.06699	0	
0.399435	2.15392	0	
0.8	2.15359	0	
0.7	2.15359	0	
0.75	2.06699	0	
0.247913	2.41439	0	
0.297343	2.328	0	
0.349435	2.41366	0	
0.5	2.5	0	
0.4	2.5	0	
0.45	2.4134	0	
0.348531	2.24111	0	
0.298074	2.15464	0	
0.399435	2.15392	0	
0.45	2.06699	0	
0.350002	2.06699	0	
0.400021	1.98038	0	
0.85	2.06699	0	
0.8	2.15359	0	
0.75	2.06699	0	
1	2.5	0	
0.9	2.5	0	
0.95	2.4134	0	
0.350002	2.06699	0	
0.45	2.06699	0	
0.399435	2.15392	0	
0.5	2.5	0	
0.45	2.4134	0	
0.55	2.4134	0	
0.3	2.5	0	
0.247913	2.41439	0	
0.349435	2.41366	0	
0.8	1.98038	0	
0.85	2.06699	0	
0.75	2.06699	0	
0.9	2.5	0	
0.8	2.5	0	
0.85	2.4134	0	
0.45	2.06699	0	
0.400021	1.98038	0	
0.500009	1.98038	0	
0.85	2.06699	0	
0.8	1.98038	0	
0.9	1.98038	0	
0.400021	1.98038	0	
0.450033	1.89377	0	
0.500009	1.98038	0	
0.8	2.5	0	
0.75	2.4134	0	
0.85	2.4134	0	
0.500025	1.80717	0	
0.55	1.72058	0	
0.600005	1.80718	0	
0.6	2.15359	0	
0.7	2.15359	0	
0.65	2.24019	0	
1.05	1.72058	0	
1	1.80718	0	
0.95	1.72058	0	
0.95	1.89378	0	
0.9	1.98038	0	
0.85	1.89378	0	
1.15	2.4134	0	
1.1	2.5	0	
1.05	2.4134	0	
0.55	2.24019	0	
0.6	2.15359	0	
0.65	2.24019	0	
0.9	1.98038	0	
0.8	1.98038	0	
0.85	1.89378	0	
1.25	1.54737	0	
1.2	1.63397	0	
1.15	1.54737	0	
1.25	1.54737	0	
1.3	1.63397	0	
1.2	1.63397	0	
1.3	1.63397	0	
1.25	1.54737	0	
1.35	1.54737	0	
0.55	2.4134	0	
0.45	2.4134	0	
0.5	2.32679	0	
0.55	1.89378	0	
0.450033	1.89377	0	
0.500025	1.80717	0	
1.4	1.63397	0	
1.3	1.63397	0	
1.35	1.54737	0	
1.45	1.54737	0	
1.4	1.63397	0	
1.35	1.54737	0	
0.450033	1.89377	0	
0.55	1.89378	0	
0.500009	1.98038	0	
0.95	2.4134	0	
0.9	2.5	0	
0.85	2.4134	0	
1.05	1.54737	0	
1.15	1.54737	0	
1.1	1.63397	0	
0.9	1.80718	0	
0.95	1.89378	0	
0.85	1.89378	0	
0.7	1.63397	0	
0.75	1.72058	0	
0.650004	1.72058	0	
0.95	1.89378	0	
0.9	1.80718	0	
1	1.80718	0	
2.65	1.20096	0	
2.55	1.20096	0	
2.6	1.11436	0	
1.9	1.63397	0	
1.8	1.63397	0	
1.85	1.54737	0	
1	1.80718	0	
0.9	1.80718	0	
0.95	1.72058	0	
2.70004	0.594377	0	
2.75033	0.505889	0	
2.79333	0.595517	0	
0.600022	1.63397	0	
0.7	1.63397	0	
0.650004	1.72058	0	
1.55	1.89378	0	
1.45	1.89378	0	
1.5	1.80718	0	
1.75	1.54737	0	
1.8	1.63397	0	
1.7	1.63397	0	
1.75	1.54737	0	
1.7	1.63397	0	
1.65	1.54737	0	
1.65	1.72058	0	
1.6	1.80718	0	
1.55	1.72058	0	
0.55	1.89378	0	
0.500025	1.80717	0	
0.600005	1.80718	0	
1.55	1.72058	0	
1.6	1.80718	0	
1.5	1.80718	0	
2.65	1.20096	0	
2.6	1.11436	0	
2.70324	1.11275	0	
1.1	1.46077	0	
1.2	1.46077	0	
1.15	1.54737	0	
1.65	1.72058	0	
1.75	1.72058	0	
1.7	1.80718	0	
1.2	1.46077	0	
1.25	1.54737	0	
1.15	1.54737	0	
1.8	1.63397	0	
1.75	1.54737	0	
1.85	1.54737	0	
1.55	1.54737	0	
1.6	1.63397	0	
1.5	1.63397	0	
0.699275	0.248935	0	
0.795647	0.249698	0	
0.749039	0.33533	0	
2.75	1.20096	0	
2.65	1.20096	0	
2.70324	1.11275	0	
1.8573	0.333096	0	
1.95	0.335446	0	
1.89958	0.420463	0	
1.14929	0.0858164	0	
1.24572	0.0818857	0	
1.19755	0.171679	0	
0.795647	0.249698	0	
0.699275	0.248935	0	
0.752579	0.163165	0	
2.75033	0.505889	0	
2.70004	0.594377	0	
2.65006	0.507778	0	
0.795647	0.249698	0	
0.849311	0.335334	0	
0.749039	0.33533	0	
1	1.63397	0	
1.05	1.72058	0	
0.95	1.72058	0	
2.6	0.421539	0	
2.7	0.421975	0	
2.65006	0.507778	0	
1	0	0	
1.1	0	0	
1.05	0.0866025	0	
0.8	2.15359	0	
0.85	2.24019	0	
0.75	2.24019	0	
1	1.63397	0	
1.05	1.54737	0	
1.1	1.63397	0	
1.05	1.72058	0	
1	1.63397	0	
1.1	1.63397	0	
3	1	0	
3	1.1	0	
2.915	1.05278	0	
1.2	2.15359	0	
[...]
CELL_DATA 3538
POINT_DATA 10614
SCALARS Pressure float 
LOOKUP_TABLE default
4.84265 4.84265 4.84265 4.01048 4.01048 4.01048 4.87222 4.87222 4.87222 4.86361 4.86361 4.86361 4.90422 4.90422 4.90422 4.88645 4.88645 4.88645 4.90796 4.90796 4.90796 4.88095 4.88095 4.88095 4.89753 4.89753 4.89753 4.92154 4.92154 4.92154 3.90023 3.90023 3.90023 4.83635 4.83635 4.83635 4.35824 4.35824 4.35824 4.80698 4.80698 4.80698 4.94367 4.94367 4.94367 4.94691 4.94691 4.94691 4.97181 4.97181 4.97181 4.96699 4.96699 4.96699 4.94533 4.94533 4.94533 4.94747 4.94747 4.94747 4.87414 4.87414 4.87414 4.86208 4.86208 4.86208 4.91979 4.91979 4.91979 4.88023 4.88023 4.88023 4.8526 4.8526 4.8526 4.90769 4.90769 4.90769 4.9058 4.9058 4.9058 4.92988 4.92988 4.92988 4.88117 4.88117 4.88117 4.84243 4.84243 4.84243 4.88648 4.88648 4.88648 4.91175 4.91175 4.91175 4.83917 4.83917 4.83917 4.90732 4.90732 4.90732 4.87509 4.87509 4.87509 3.44591 3.44591 3.44591 4.76528 4.76528 4.76528 4.80399 4.80399 4.80399 4.90064 4.90064 4.90064 4.94095 4.94095 4.94095 4.92323 4.92323 4.92323 4.9495 4.9495 4.9495 4.94286 4.94286 4.94286 4.94151 4.94151 4.94151 4.93551 4.93551 4.93551 4.93449 4.93449 4.93449 2.18217 2.18217 2.18217 3.89975 3.89975 3.89975 3.87992 3.87992 3.87992 4.80267 4.80267 4.80267 4.97676 4.97676 4.97676 4.90957 4.90957 4.90957 4.94517 4.94517 4.94517 4.96879 4.96879 4.96879 4.94876 4.94876 4.94876 4.94542 4.94542 4.94542 4.95086 4.95086 4.95086 4.94841 4.94841 4.94841 4.93848 4.93848 4.93848 4.93778 4.93778 4.93778 4.94962 4.94962 4.94962 4.95023 4.95023 4.95023 3.16147 3.16147 3.16147 4.91225 4.91225 4.91225 4.94851 4.94851 4.94851 4.96727 4.96727 4.96727 2.35342 2.35342 2.35342 4.84673 4.84673 4.84673 4.83753 4.83753 4.83753 4.91395 4.91395 4.91395 4.84366 4.84366 4.84366 4.92926 4.92926 4.92926 4.91066 4.91066 4.91066 4.83097 4.83097 4.83097 4.84801 4.84801 4.84801 4.87947 4.87947 4.87947 4.89966 4.89966 4.89966 4.85339 4.85339 4.85339 4.85772 4.85772 4.85772 4.84228 4.84228 4.84228 4.83963 4.83963 4.83963 4.92218 4.92218 4.92218 3.10644 3.10644 3.10644 4.83135 4.83135 4.83135 4.91815 4.91815 4.91815 3.30011 3.30011 3.30011 4.90696 4.90696 4.90696 4.70531 4.70531 4.70531 4.74377 4.74377 4.74377 4.84428 4.84428 4.84428 4.91203 4.91203 4.91203 4.78989 4.78989 4.78989 4.83603 4.83603 4.83603 4.91063 4.91063 4.91063 4.86911 4.86911 4.86911 4.88378 4.88378 4.88378 4.19925 4.19925 4.19925 4.8925 4.8925 4.8925 4.91851 4.91851 4.91851 4.8218 4.8218 4.8218 4.84614 4.84614 4.84614 4.89237 4.89237 4.89237 4.90219 4.90219 4.90219 4.96423 4.96423 4.96423 4.92713 4.92713 4.92713 4.94768 4.94768 4.94768 2.27635 2.27635 2.27635 4.84185 4.84185 4.84185 4.84674 4.84674 4.84674 4.93187 4.93187 4.93187 4.93038 4.93038 4.93038 4.83942 4.83942 4.83942 4.92234 4.92234 4.92234 4.80219 4.80219 4.80219 4.82474 4.82474 4.82474 4.84711 4.84711 4.84711 4.82702 4.82702 4.82702 4.83362 4.83362 4.83362 4.81265 4.81265 4.81265 4.83862 4.83862 4.83862 4.85383 4.85383 4.85383 4.86571 4.86571 4.86571 3.94852 3.94852 3.94852 4.84636 4.84636 4.84636 4.80258 4.80258 4.80258 4.83565 4.83565 4.83565 4.85512 4.85512 4.85512 4.5449 4.5449 4.5449 4.85794 4.85794 4.85794 4.89587 4.89587 4.89587 4.86195 4.86195 4.86195 4.61381 4.61381 4.61381 4.88001 4.88001 4.88001 4.8191 4.8191 4.8191 4.93303 4.93303 4.93303 4.91564 4.91564 4.91564 5.16797 5.16797 5.16797 4.8149 4.8149 4.8149 4.88137 4.88137 4.88137 4.9387 4.9387 4.9387 4.95027 4.95027 4.95027 4.94191 4.94191 4.94191 4.80609 4.80609 4.80609 4.87092 4.87092 4.87092 4.95623 4.95623 4.95623 4.94286 4.94286 4.94286 4.87091 4.87091 4.87091 4.43066 4.43066 4.43066 4.93375 4.93375 4.93375 4.90245 4.90245 4.90245 4.89355 4.89355 4.89355 4.92728 4.92728 4.92728 4.84301 4.84301 4.84301 4.92459 4.92459 4.92459 4.91718 4.91718 4.91718 4.43049 4.43049 4.43049 4.9026 4.9026 4.9026 5.0188 5.0188 5.0188 4.93805 4.93805 4.93805 4.92995 4.92995 4.92995 4.96446 4.96446 4.96446 4.88333 4.88333 4.88333 4.9924 4.9924 4.9924 4.82029 4.82029 4.82029 4.93113 4.93113 4.93113 4.95572 4.95572 4.95572 4.93819 4.93819 4.93819 4.92101 4.92101 4.92101 4.95564 4.95564 4.95564 4.93956 4.93956 4.93956 4.86023 4.86023 4.86023 4.89968 4.89968 4.89968 4.9613 4.9613 4.9613 4.9453 4.9453 4.9453 4.26627 4.26627 4.26627 4.94338 4.94338 4.94338 4.92605 4.92605 4.92605 4.11685 4.11685 4.11685 4.9636 4.9636 4.9636 4.79221 4.79221 4.79221 4.93028 4.93028 4.93028 4.93472 4.93472 4.93472 4.8958 4.8958 4.8958 5.01924 5.01924 5.01924 4.84708 4.84708 4.84708 4.90107 4.90107 4.90107 4.95441 4.95441 4.95441 4.83312 4.83312 4.83312 5.17098 5.17098 5.17098 4.95333 4.95333 4.95333 4.89567 4.89567 4.89567 4.96511 4.96511 4.96511 4.93725 4.93725 4.93725 4.94116 4.94116 4.94116 4.9886 4.9886 4.9886 4.97489 4.97489 4.97489 4.98698 4.98698 4.98698 4.89638 4.89638 4.89638 4.98376 4.98376 4.98376 4.95815 4.95815 4.95815 4.92366 4.92366 4.92366 4.93985 4.93985 4.93985 4.88916 4.88916 4.88916 4.9308 4.9308 4.9308 4.90289 4.90289 4.90289 4.88631 4.88631 4.88631 4.89733 4.89733 4.89733 4.79794 4.79794 4.79794 4.9081 4.9081 4.9081 4.26908 4.26908 4.26908 7.12228 7.12228 7.12228 5.0013 5.0013 5.0013 4.95896 4.95896 4.95896 4.7347 4.7347 4.7347 4.95879 4.95879 4.95879 4.31232 4.31232 4.31232 4.81039 4.81039 4.81039 4.94174 4.94174 4.94174 4.95994 4.95994 4.95994 4.86819 4.86819 4.86819 2.33382 2.33382 2.33382 4.50768 4.50768 4.50768 4.592 4.592 4.592 5.02104 5.02104 5.02104 4.91307 4.91307 4.91307 4.83744 4.83744 4.83744 4.8499 4.8499 4.8499 4.85594 4.85594 4.85594 4.54677 4.54677 4.54677 4.64325 4.64325 4.64325 4.85007 4.85007 4.85007 4.85871 4.85871 4.85871 5.7005 5.7005 5.7005 4.90901 4.90901 4.90901 4.86905 4.86905 4.86905 4.87867 4.87867 4.87867 4.92823 4.92823 4.92823 4.93513 4.93513 4.93513 4.87268 4.87268 4.87268 4.66594 4.66594 4.66594 4.8343 4.8343 4.8343 2.85336 2.85336 2.85336 2.24312 2.24312 2.24312 4.86643 4.86643 4.86643 4.9609 4.9609 4.9609 4.93441 4.93441 4.93441 5.184 5.184 5.184 4.93219 4.93219 4.93219 4.91071 4.91071 4.91071 4.92998 4.92998 4.92998 4.8638 4.8638 4.8638 4.85116 4.85116 4.85116 4.95983 4.95983 4.95983 5.15318 5.15318 5.15318 4.93701 4.93701 4.93701 4.83613 4.83613 4.83613 4.85141 4.85141 4.85141 4.34275 4.34275 4.34275 4.43604 4.43604 4.43604 4.88914 4.88914 4.88914 4.94016 4.94016 4.94016 4.92623 4.92623 4.92623 4.72101 4.72101 4.72101 4.88486 4.88486 4.88486 4.94875 4.94875 4.94875 4.8934 4.8934 4.8934 4.87092 4.87092 4.87092 4.75666 4.75666 4.75666 4.85706 4.85706 4.85706 4.93154 4.93154 4.93154 4.71631 4.71631 4.71631 4.9331 4.9331 4.9331 4.78667 4.78667 4.78667 4.94119 4.94119 4.94119 4.92953 4.92953 4.92953 4.8481 4.8481 4.8481 3.98433 3.98433 3.98433 4.91025 4.91025 4.91025 4.4712 4.4712 4.4712 4.93807 4.93807 4.93807 4.91315 4.91315 4.91315 4.90857 4.90857 4.90857 4.92858 4.92858 4.92858 4.86897 4.86897 4.86897 4.90575 4.90575 4.90575 4.97145 4.97145 4.97145 5.02209 5.02209 5.02209 4.82287 4.82287 4.82287 4.91248 4.91248 4.91248 4.95765 4.95765 4.95765 4.71849 4.71849 4.71849 4.87224 4.87224 4.87224 4.59348 4.59348 4.59348 4.91542 4.91542 4.91542 4.8917 4.8917 4.8917 4.80421 4.80421 4.80421 4.8875 4.8875 4.8875 4.95576 4.95576 4.95576 4.92784 4.92784 4.92784 4.88503 4.88503 4.88503 4.08494 4.08494 4.08494 4.94202 4.94202 4.94202 4.91744 4.91744 4.91744 4.86976 4.86976 4.86976 4.93111 4.93111 4.93111 4.63334 4.63334 4.63334 4.79616 4.79616 4.79616 4.88195 4.88195 4.88195 4.7927 4.7927 4.7927 4.9151 4.9151 4.9151 4.70593 4.70593 4.70593 4.79842 4.79842 4.79842 4.99857 4.99857 4.99857 4.94184 4.94184 4.94184 4.98425 4.98425 4.98425 5.06291 5.06291 5.06291 5.13676 5.13676 5.13676 3.28693 3.28693 3.28693 4.43726 4.43726 4.43726 4.65111 4.65111 4.65111 4.86074 4.86074 4.86074 5.45991 5.45991 5.45991 4.58071 4.58071 4.58071 4.56106 4.56106 4.56106 4.96578 4.96578 4.96578 3.76574 3.76574 3.76574 4.91695 4.91695 4.91695 4.87681 4.87681 4.87681 4.62288 4.62288 4.62288 5.09444 5.09444 5.09444 4.93099 4.93099 4.93099 4.92918 4.92918 4.92918 4.58495 4.58495 4.58495 5.13373 5.13373 5.13373 4.93331 4.93331 4.93331 4.86893 4.86893 4.86893 4.88206 4.88206 4.88206 4.91973 4.91973 4.91973 4.92848 4.92848 4.92848 4.93715 4.93715 4.93715 4.92464 4.92464 4.92464 4.82831 4.82831 4.82831 4.42121 4.42121 4.42121 4.93533 4.93533 4.93533 4.68485 4.68485 4.68485 4.74955 4.74955 4.74955 4.91354 4.91354 4.91354 4.92892 4.92892 4.92892 4.92587 4.92587 4.92587 4.91417 4.91417 4.91417 4.935 4.935 4.935 1.32104 1.32104 1.32104 4.93152 4.93152 4.93152 4.86716 4.86716 4.86716 4.93742 4.93742 4.93742 4.01369 4.01369 4.01369 5.03372 5.03372 5.03372 4.55542 4.55542 4.55542 4.93352 4.93352 4.93352 5.34713 5.34713 5.34713 4.92693 4.92693 4.92693 4.88103 4.88103 4.88103 4.83551 4.83551 4.83551 4.90051 4.90051 4.90051 4.87889 4.87889 4.87889 4.82305 4.82305 4.82305 4.85446 4.85446 4.85446 4.93067 4.93067 4.93067 4.94994 4.94994 4.94994 4.94348 4.94348 4.94348 4.8285 4.8285 4.8285 4.97549 4.97549 4.97549 4.9117 4.9117 4.9117 4.89329 4.89329 4.89329 4.94577 4.94577 4.94577 4.97396 4.97396 4.97396 4.94831 4.94831 4.94831 4.93447 4.93447 4.93447 4.88528 4.88528 4.88528 4.90364 4.90364 4.90364 4.97392 4.97392 4.97392 4.93317 4.93317 4.93317 4.7591 4.7591 4.7591 5.01192 5.01192 5.01192 4.92996 4.92996 4.92996 4.93463 4.93463 4.93463 5.13308 5.13308 5.13308 4.93195 4.93195 4.93195 4.94501 4.94501 4.94501 4.97912 4.97912 4.97912 4.9582 4.9582 4.9582 4.9112 4.9112 4.9112 4.90309 4.90309 4.90309 4.96581 4.96581 4.96581 4.9059 4.9059 4.9059 4.87817 4.87817 4.87817 4.93485 4.93485 4.93485 4.79086 4.79086 4.79086 4.87126 4.87126 4.87126 4.87094 4.87094 4.87094 4.85325 4.85325 4.85325 4.88156 4.88156 4.88156 4.93328 4.93328 4.93328 4.88959 4.88959 4.88959 5.08182 5.08182 5.08182 4.83617 4.83617 4.83617 4.89646 4.89646 4.89646 5.01445 5.01445 5.01445 4.89792 4.89792 4.89792 4.92942 4.92942 4.92942 4.89747 4.89747 4.89747 4.9062 4.9062 4.9062 4.93675 4.93675 4.93675 4.96658 4.96658 4.96658 4.78346 4.78346 4.78346 4.9251 4.9251 4.9251 4.92314 4.92314 4.92314 4.95217 4.95217 4.95217 4.87962 4.87962 4.87962 5.08582 5.08582 5.08582 4.92828 4.92828 4.92828 4.90139 4.90139 4.90139 4.64136 4.64136 4.64136 4.85353 4.85353 4.85353 4.93707 4.93707 4.93707 4.91924 4.91924 4.91924 4.94797 4.94797 4.94797 4.84836 4.84836 4.84836 4.98154 4.98154 4.98154 4.95984 4.95984 4.95984 4.94665 4.94665 4.94665 4.95885 4.95885 4.95885 4.87116 4.87116 4.87116 5.00229 5.00229 5.00229 4.891 4.891 4.891 4.87775 4.87775 4.87775 4.88743 4.88743 4.88743 4.87945 4.87945 4.87945 4.88075 4.88075 4.88075 4.97948 4.97948 4.97948 4.84028 4.84028 4.84028 4.46599 4.46599 4.46599 4.88599 4.88599 4.88599 4.91906 4.91906 4.91906 4.8785 4.8785 4.8785 4.88482 4.88482 4.88482 4.92557 4.92557 4.92557 4.28064 4.28064 4.28064 4.9093 4.9093 4.9093 4.97667 4.97667 4.97667 4.95555 4.95555 4.95555 4.88688 4.88688 4.88688 4.82962 4.82962 4.82962 4.85775 4.85775 4.85775 4.93552 4.93552 4.93552 4.96848 4.96848 4.96848 4.79445 4.79445 4.79445 5.02131 5.02131 5.02131 4.91602 4.91602 4.91602 4.89393 4.89393 4.89393 4.89535 4.89535 4.89535 4.93896 4.93896 4.93896 4.83483 4.83483 4.83483 4.99384 4.99384 4.99384 4.89187 4.89187 4.89187 5.08077 5.08077 5.08077 4.83197 4.83197 4.83197 4.66678 4.66678 4.66678 4.90575 4.90575 4.90575 4.93121 4.93121 4.93121 4.81165 4.81165 4.81165 4.90147 4.90147 4.90147 5.05903 5.05903 5.05903 4.90953 4.90953 4.90953 4.99094 4.99094 4.99094 4.86431 4.86431 4.86431 4.94854 4.94854 4.94854 4.7195 4.7195 4.7195 4.73756 4.73756 4.73756 4.88816 4.88816 4.88816 4.85759 4.85759 4.85759 1.48656 1.48656 1.48656 4.81422 4.81422 4.81422 4.5553 4.5553 4.5553 4.91359 4.91359 4.91359 4.92747 4.92747 4.92747 4.75959 4.75959 4.75959 4.93863 4.93863 4.93863 4.95123 4.95123 4.95123 4.89928 4.89928 4.89928 4.87344 4.87344 4.87344 4.96525 4.96525 4.96525 4.98132 4.98132 4.98132 4.83246 4.83246 4.83246 4.8667 4.8667 4.8667 4.94378 4.94378 4.94378 4.91714 4.91714 4.91714 4.92975 4.92975 4.92975 4.93572 4.93572 4.93572 4.9073 4.9073 4.9073 4.99955 4.99955 4.99955 4.8605 4.8605 4.8605 4.95173 4.95173 4.95173 4.82557 4.82557 4.82557 4.87503 4.87503 4.87503 5.02209 5.02209 5.02209 4.49923 4.49923 4.49923 4.70381 4.70381 4.70381 5.09608 5.09608 5.09608 4.86567 4.86567 4.86567 4.92927 4.92927 4.92927 4.00499 4.00499 4.00499 4.81007 4.81007 4.81007 4.94577 4.94577 4.94577 4.87718 4.87718 4.87718 4.8163 4.8163 4.8163 4.9769 4.9769 4.9769 4.92207 4.92207 4.92207 4.83543 4.83543 4.83543 4.83708 4.83708 4.83708 4.87475 4.87475 4.87475 4.83614 4.83614 4.83614 4.90422 4.90422 4.90422 4.91893 4.91893 4.91893 4.90366 4.90366 4.90366 4.77498 4.77498 4.77498 4.7629 4.7629 4.7629 4.87365 4.87365 4.87365 4.86795 4.86795 4.86795 4.85179 4.85179 4.85179 4.88494 4.88494 4.88494 4.89957 4.89957 4.89957 4.90518 4.90518 4.90518 4.85124 4.85124 4.85124 4.81581 4.81581 4.81581 4.94319 4.94319 4.94319 4.91659 4.91659 4.91659 4.84529 4.84529 4.84529 5.06043 5.06043 5.06043 4.90393 4.90393 4.90393 4.87713 4.87713 4.87713 4.90517 4.90517 4.90517 4.87604 4.87604 4.87604 5.01342 5.01342 5.01342 4.90741 4.90741 4.90741 4.87126 4.87126 4.87126 4.99491 4.99491 4.99491 4.94933 4.94933 4.94933 4.81952 4.81952 4.81952 4.87378 4.87378 4.87378 4.89917 4.89917 4.89917 4.91364 4.91364 4.91364 4.91107 4.91107 4.91107 4.83664 4.83664 4.83664 4.964 4.964 4.964 4.85196 4.85196 4.85196 4.91706 4.91706 4.91706 5.13658 5.13658 5.13658 4.87491 4.87491 4.87491 4.92303 4.92303 4.92303 4.86184 4.86184 4.86184 4.92142 4.92142 4.92142 4.92567 4.92567 4.92567 4.6066 4.6066 4.6066 4.93954 4.93954 4.93954 4.98399 4.98399 4.98399 4.94059 4.94059 4.94059 4.92219 4.92219 4.92219 4.89897 4.89897 4.89897 4.87975 4.87975 4.87975 4.92587 4.92587 4.92587 4.86723 4.86723 4.86723 4.92811 4.92811 4.92811 4.92042 4.92042 4.92042 4.77417 4.77417 4.77417 4.83471 4.83471 4.83471 4.85656 4.85656 4.85656 4.9178 4.9178 4.9178 4.91908 4.91908 4.91908 4.87428 4.87428 4.87428 4.90993 4.90993 4.90993 4.91869 4.91869 4.91869 4.68854 4.68854 4.68854 4.89287 4.89287 4.89287 4.90217 4.90217 4.90217 4.92746 4.92746 4.92746 4.84468 4.84468 4.84468 4.91309 4.91309 4.91309 5.03708 5.03708 5.03708 4.91075 4.91075 4.91075 4.88576 4.88576 4.88576 4.9268 4.9268 4.9268 4.87126 4.87126 4.87126 4.91368 4.91368 4.91368 4.92541 4.92541 4.92541 4.86587 4.86587 4.86587 4.91578 4.91578 4.91578 5.02394 5.02394 5.02394 4.92044 4.92044 4.92044 4.94383 4.94383 4.94383 4.90293 4.90293 4.90293 5.03137 5.03137 5.03137 4.92091 4.92091 4.92091 4.93223 4.93223 4.93223 4.91332 4.91332 4.91332 4.91813 4.91813 4.91813 4.86612 4.86612 4.86612 4.91695 4.91695 4.91695 4.89866 4.89866 4.89866 4.87672 4.87672 4.87672 4.84928 4.84928 4.84928 4.90417 4.90417 4.90417 4.87765 4.87765 4.87765 4.87468 4.87468 4.87468 5.02184 5.02184 5.02184 5.01101 5.01101 5.01101 4.86148 4.86148 4.86148 4.92349 4.92349 4.92349 4.87111 4.87111 4.87111 4.7797 4.7797 4.7797 4.97872 4.97872 4.97872 4.91966 4.91966 4.91966 4.88679 4.88679 4.88679 4.86675 4.86675 4.86675 4.92361 4.92361 4.92361 5.0143 5.0143 5.0143 4.93683 4.93683 4.93683 4.94853 4.94853 4.94853 4.90117 4.90117 4.90117 4.91559 4.91559 4.91559 4.8575 4.8575 4.8575 4.9218 4.9218 4.9218 4.93162 4.93162 4.93162 4.97773 4.97773 4.97773 4.97442 4.97442 4.97442 4.88508 4.88508 4.88508 4.9443 4.9443 4.9443 4.83377 4.83377 4.83377 4.93023 4.93023 4.93023 4.88598 4.88598 4.88598 4.84753 4.84753 4.84753 4.91653 4.91653 4.91653 4.80869 4.80869 4.80869 4.89896 4.89896 4.89896 4.92054 4.92054 4.92054 4.8148 4.8148 4.8148 4.86612 4.86612 4.86612 5.02543 5.02543 5.02543 4.94985 4.94985 4.94985 4.90843 4.90843 4.90843 4.94532 4.94532 4.94532 5.00875 5.00875 5.00875 4.90553 4.90553 4.90553 4.98979 4.98979 4.98979 4.77598 4.77598 4.77598 4.91795 4.91795 4.91795 4.91977 4.91977 4.91977 5.01205 5.01205 5.01205 4.9949 4.9949 4.9949 4.84163 4.84163 4.84163 5.04829 5.04829 5.04829 5.01508 5.01508 5.01508 4.94524 4.94524 4.94524 5.19447 5.19447 5.19447 4.86999 4.86999 4.86999 4.93352 4.93352 4.93352 4.93149 4.93149 4.93149 4.988 4.988 4.988 5.23903 5.23903 5.23903 4.97107 4.97107 4.97107 4.91618 4.91618 4.91618 5.15438 5.15438 5.15438 4.96662 4.96662 4.96662 4.91977 4.91977 4.91977 4.90381 4.90381 4.90381 4.9793 4.9793 4.9793 4.98548 4.98548 4.98548 4.90865 4.90865 4.90865 4.91208 4.91208 4.91208 5.02272 5.02272 5.02272 4.97563 4.97563 4.97563 4.87205 4.87205 4.87205 4.94286 4.94286 4.94286 4.92059 4.92059 4.92059 4.9313 4.9313 4.9313 4.90859 4.90859 4.90859 5.03576 5.03576 5.03576 4.95208 4.95208 4.95208 4.93655 4.93655 4.93655 4.91013 4.91013 4.91013 5.18654 5.18654 5.18654 4.9342 4.9342 4.9342 5.04787 5.04787 5.04787 5.13169 5.13169 5.13169 4.98105 4.98105 4.98105 4.89878 4.89878 4.89878 5.01323 5.01323 5.01323 4.89029 4.89029 4.89029 4.91394 4.91394 4.91394 4.9092 4.9092 4.9092 4.92419 4.92419 4.92419 5.08614 5.08614 5.08614 5.00251 5.00251 5.00251 4.92212 4.92212 4.92212 4.83702 4.83702 4.83702 4.92353 4.92353 4.92353 4.8595 4.8595 4.8595 4.9277 4.9277 4.9277 4.92484 4.92484 4.92484 4.90998 4.90998 4.90998 5.00889 5.00889 5.00889 4.91885 4.91885 4.91885 4.86408 4.86408 4.86408 4.90886 4.90886 4.90886 4.88073 4.88073 4.88073 4.94397 4.94397 4.94397 4.92949 4.92949 4.92949 4.91843 4.91843 4.91843 4.96913 4.96913 4.96913 5.15829 5.15829 5.15829 4.53256 4.53256 4.53256 4.90731 4.90731 4.90731 4.91978 4.91978 4.91978 5.10293 5.10293 5.10293 4.9739 4.9739 4.9739 4.91169 4.91169 4.91169 4.90095 4.90095 4.90095 4.91206 4.91206 4.91206 5.07485 5.07485 5.07485 4.92655 4.92655 4.92655 5.04659 5.04659 5.04659 4.88044 4.88044 4.88044 4.91168 4.91168 4.91168 4.92342 4.92342 4.92342 4.91733 4.91733 4.91733 4.92546 4.92546 4.92546 4.92897 4.92897 4.92897 4.90395 4.90395 4.90395 4.76338 4.76338 4.76338 4.85749 4.85749 4.85749 4.9178 4.9178 4.9178 4.90989 4.90989 4.90989 5.06637 5.06637 5.06637 4.90048 4.90048 4.90048 4.97001 4.97001 4.97001 5.01006 5.01006 5.01006 4.85808 4.85808 4.85808 4.92524 4.92524 4.92524 4.9079 4.9079 4.9079 4.91232 4.91232 4.91232 4.84616 4.84616 4.84616 4.84606 4.84606 4.84606 4.92341 4.92341 4.92341 4.90119 4.90119 4.90119 4.88973 4.88973 4.88973 4.83042 4.83042 4.83042 4.89308 4.89308 4.89308 4.92966 4.92966 4.92966 4.91323 4.91323 4.91323 4.92366 4.92366 4.92366 4.8918 4.8918 4.8918 4.88545 4.88545 4.88545 4.91561 4.91561 4.91561 4.91084 4.91084 4.91084 4.89968 4.89968 4.89968 4.93417 4.93417 4.93417 4.92183 4.92183 4.92183 4.9151 4.9151 4.9151 4.89399 4.89399 4.89399 4.93031 4.93031 4.93031 5.04712 5.04712 5.04712 5.11737 5.11737 5.11737 4.80419 4.80419 4.80419 4.87067 4.87067 4.87067 4.90046 4.90046 4.90046 4.78624 4.78624 4.78624 4.92071 4.92071 4.92071 4.90187 4.90187 4.90187 4.87235 4.87235 4.87235 4.88532 4.88532 4.88532 5.38065 5.38065 5.38065 4.91146 4.91146 4.91146 4.92096 4.92096 4.92096 4.89866 4.89866 4.89866 4.91519 4.91519 4.91519 4.93515 4.93515 4.93515 4.93285 4.93285 4.93285 4.84289 4.84289 4.84289 4.90115 4.90115 4.90115 4.80944 4.80944 4.80944 4.92157 4.92157 4.92157 5.00135 5.00135 5.00135 4.94216 4.94216 4.94216 4.89772 4.89772 4.89772 4.89849 4.89849 4.89849 5.43921 5.43921 5.43921 5.08782 5.08782 5.08782 4.89293 4.89293 4.89293 4.91822 4.91822 4.91822 4.89634 4.89634 4.89634 4.90579 4.90579 4.90579 4.93693 4.93693 4.93693 4.90177 4.90177 4.90177 4.93531 4.93531 4.93531 3.31406 3.31406 3.31406 4.78284 4.78284 4.78284 4.9019 4.9019 4.9019 4.90347 4.90347 4.90347 4.92624 4.92624 4.92624 5.37834 5.37834 5.37834 4.89613 4.89613 4.89613 5.41713 5.41713 5.41713 4.65902 4.65902 4.65902 5.05887 5.05887 5.05887 4.91355 4.91355 4.91355 4.90229 4.90229 4.90229 4.82411 4.82411 4.82411 4.89965 4.89965 4.89965 4.89315 4.89315 4.89315 4.92004 4.92004 4.92004 5.42215 5.42215 5.42215 4.83687 4.83687 4.83687 5.45045 5.45045 5.45045 4.89059 4.89059 4.89059 4.90375 4.90375 4.90375 4.90202 4.90202 4.90202 4.96779 4.96779 4.96779 5.2345 5.2345 5.2345 4.40386 4.40386 4.40386 4.85404 4.85404 4.85404 4.90912 4.90912 4.90912 4.90048 4.90048 4.90048 4.90448 4.90448 4.90448 4.9162 4.9162 4.9162 4.89834 4.89834 4.89834 4.9103 4.9103 4.9103 4.85325 4.85325 4.85325 4.87945 4.87945 4.87945 4.92061 4.92061 4.92061 4.89135 4.89135 4.89135 4.87466 4.87466 4.87466 4.9050