# vtk DataFile Version 3.0
vtk output
ASCII
DATASET UNSTRUCTURED_GRID
POINTS 8000 float
0.1	0.9	1	
0	0.9	1	
0	1	1	
0.1	1	1	
0.1	0.9	0.9	
0	0.9	0.9	
0	1	0.9	
0.1	1	0.9	
0.1	0.9	0.9	
0	0.9	0.9	
0	1	0.9	
0.1	1	0.9	
0.1	0.9	0.8	
0	0.9	0.8	
0	1	0.8	
0.1	1	0.8	
0.1	0.9	0.8	
0	0.9	0.8	
0	1	0.8	
0.1	1	0.8	
0.1	0.9	0.7	
0	0.9	0.7	
0	1	0.7	
0.1	1	0.7	
0.1	0.9	0.7	
0	0.9	0.7	
0	1	0.7	
0.1	1	0.7	
0.1	0.9	0.6	
0	0.9	0.6	
0	1	0.6	
0.1	1	0.6	
0.1	0.9	0.6	
0	0.9	0.6	
0	1	0.6	
0.1	1	0.6	
0.1	0.9	0.5	
0	0.9	0.5	
0	1	0.5	
0.1	1	0.5	
0.1	0.9	0.5	
0	0.9	0.5	
0	1	0.5	
0.1	1	0.5	
0.1	0.9	0.4	
0	0.9	0.4	
0	1	0.4	
0.1	1	0.4	
0.1	0.9	0.4	
0	0.9	0.4	
0	1	0.4	
0.1	1	0.4	
0.1	0.9	0.3	
0	0.9	0.3	
0	1	0.3	
0.1	1	0.3	
0.1	0.9	0.3	
0	0.9	0.3	
0	1	0.3	
0.1	1	0.3	
0.1	0.9	0.2	
0	0.9	0.2	
0	1	0.2	
0.1	1	0.2	
0.1	0.9	0.2	
0	0.9	0.2	
0	1	0.2	
0.1	1	0.2	
0.1	0.9	0.1	
0	0.9	0.1	
0	1	0.1	
0.1	1	0.1	
0.1	0.9	0.1	
0	0.9	0.1	
0	1	0.1	
0.1	1	0.1	
0.1	0.9	0	
0	0.9	0	
0	1	0	
0.1	1	0	
0.2	0.9	1	
0.1	0.9	1	
0.1	1	1	
0.2	1	1	
0.2	0.9	0.9	
0.1	0.9	0.9	
0.1	1	0.9	
0.2	1	0.9	
0.2	0.9	0.9	
0.1	0.9	0.9	
0.1	1	0.9	
0.2	1	0.9	
0.2	0.9	0.8	
0.1	0.9	0.8	
0.1	1	0.8	
0.2	1	0.8	
0.2	0.9	0.8	
0.1	0.9	0.8	
0.1	1	0.8	
0.2	1	0.8	
0.2	0.9	0.7	
0.1	0.9	0.7	
0.1	1	0.7	
0.2	1	0.7	
0.2	0.9	0.7	
0.1	0.9	0.7	
0.1	1	0.7	
0.2	1	0.7	
0.2	0.9	0.6	
0.1	0.9	0.6	
0.1	1	0.6	
0.2	1	0.6	
0.2	0.9	0.6	
0.1	0.9	0.6	
0.1	1	0.6	
0.2	1	0.6	
0.2	0.9	0.5	
0.1	0.9	0.5	
0.1	1	0.5	
0.2	1	0.5	
0.2	0.9	0.5	
0.1	0.9	0.5	
0.1	1	0.5	
0.2	1	0.5	
0.2	0.9	0.4	
0.1	0.9	0.4	
0.1	1	0.4	
0.2	1	0.4	
0.2	0.9	0.4	
0.1	0.9	0.4	
0.1	1	0.4	
0.2	1	0.4	
0.2	0.9	0.3	
0.1	0.9	0.3	
0.1	1	0.3	
0.2	1	0.3	
0.2	0.9	0.3	
0.1	0.9	0.3	
0.1	1	0.3	
0.2	1	0.3	
0.2	0.9	0.2	
0.1	0.9	0.2	
0.1	1	0.2	
0.2	1	0.2	
0.2	0.9	0.2	
0.1	0.9	0.2	
0.1	1	0.2	
0.2	1	0.2	
0.2	0.9	0.1	
0.1	0.9	0.1	
0.1	1	0.1	
0.2	1	0.1	
0.2	0.9	0.1	
0.1	0.9	0.1	
0.1	1	0.1	
0.2	1	0.1	
0.2	0.9	0	
0.1	0.9	0	
0.1	1	0	
0.2	1	0	
0.3	0.9	1	
0.2	0.9	1	
0.2	1	1	
0.3	1	1	
0.3	0.9	0.9	
0.2	0.9	0.9	
0.2	1	0.9	
0.3	1	0.9	
0.3	0.9	0.9	
0.2	0.9	0.9	
0.2	1	0.9	
0.3	1	0.9	
0.3	0.9	0.8	
0.2	0.9	0.8	
0.2	1	0.8	
0.3	1	0.8	
0.3	0.9	0.8	
0.2	0.9	0.8	
0.2	1	0.8	
0.3	1	0.8	
0.3	0.9	0.7	
0.2	0.9	0.7	
0.2	1	0.7	
0.3	1	0.7	
0.3	0.9	0.7	
0.2	0.9	0.7	
0.2	1	0.7	
0.3	1	0.7	
0.3	0.9	0.6	
0.2	0.9	0.6	
0.2	1	0.6	
0.3	1	0.6	
0.3	0.9	0.6	
0.2	0.9	0.6	
0.2	1	0.6	
0.3	1	0.6	
0.3	0.9	0.5	
0.2	0.9	0.5	
0.2	1	0.5	
0.3	1	0.5	
0.3	0.9	0.5	
0.2	0.9	0.5	
0.2	1	0.5	
0.3	1	0.5	
0.3	0.9	0.4	
0.2	0.9	0.4	
0.2	1	0.4	
0.3	1	0.4	
0.3	0.9	0.4	
0.2	0.9	0.4	
0.2	1	0.4	
0.3	1	0.4	
0.3	0.9	0.3	
0.2	0.9	0.3	
0.2	1	0.3	
0.3	1	0.3	
0.3	0.9	0.3	
0.2	0.9	0.3	
0.2	1	0.3	
0.3	1	0.3	
0.3	0.9	0.2	
0.2	0.9	0.2	
0.2	1	0.2	
0.3	1	0.2	
0.3	0.9	0.2	
0.2	0.9	0.2	
0.2	1	0.2	
0.3	1	0.2	
0.3	0.9	0.1	
0.2	0.9	0.1	
0.2	1	0.1	
0.3	1	0.1	
0.3	0.9	0.1	
0.2	0.9	0.1	
0.2	1	0.1	
0.3	1	0.1	
0.3	0.9	0	
0.2	0.9	0	
0.2	1	0	
0.3	1	0	
0.4	0.9	1	
0.3	0.9	1	
0.3	1	1	
0.4	1	1	
0.4	0.9	0.9	
0.3	0.9	0.9	
0.3	1	0.9	
0.4	1	0.9	
0.4	0.9	0.9	
0.3	0.9	0.9	
0.3	1	0.9	
0.4	1	0.9	
0.4	0.9	0.8	
0.3	0.9	0.8	
0.3	1	0.8	
0.4	1	0.8	
0.4	0.9	0.8	
0.3	0.9	0.8	
0.3	1	0.8	
0.4	1	0.8	
0.4	0.9	0.7	
0.3	0.9	0.7	
0.3	1	0.7	
0.4	1	0.7	
0.4	0.9	0.7	
0.3	0.9	0.7	
0.3	1	0.7	
0.4	1	0.7	
0.4	0.9	0.6	
0.3	0.9	0.6	
0.3	1	0.6	
0.4	1	0.6	
0.4	0.9	0.6	
0.3	0.9	0.6	
0.3	1	0.6	
0.4	1	0.6	
0.4	0.9	0.5	
0.3	0.9	0.5	
0.3	1	0.5	
0.4	1	0.5	
0.4	0.9	0.5	
0.3	0.9	0.5	
0.3	1	0.5	
0.4	1	0.5	
0.4	0.9	0.4	
0.3	0.9	0.4	
0.3	1	0.4	
0.4	1	0.4	
0.4	0.9	0.4	
0.3	0.9	0.4	
0.3	1	0.4	
0.4	1	0.4	
0.4	0.9	0.3	
0.3	0.9	0.3	
0.3	1	0.3	
0.4	1	0.3	
0.4	0.9	0.3	
0.3	0.9	0.3	
0.3	1	0.3	
0.4	1	0.3	
0.4	0.9	0.2	
0.3	0.9	0.2	
0.3	1	0.2	
0.4	1	0.2	
0.4	0.9	0.2	
0.3	0.9	0.2	
0.3	1	0.2	
0.4	1	0.2	
0.4	0.9	0.1	
0.3	0.9	0.1	
0.3	1	0.1	
0.4	1	0.1	
0.4	0.9	0.1	
0.3	0.9	0.1	
0.3	1	0.1	
0.4	1	0.1	
0.4	0.9	0	
0.3	0.9	0	
0.3	1	0	
0.4	1	0	
0.5	0.9	1	
0.4	0.9	1	
0.4	1	1	
0.5	1	1	
0.5	0.9	0.9	
0.4	0.9	0.9	
0.4	1	0.9	
0.5	1	0.9	
0.5	0.9	0.9	
0.4	0.9	0.9	
0.4	1	0.9	
0.5	1	0.9	
0.5	0.9	0.8	
0.4	0.9	0.8	
0.4	1	0.8	
0.5	1	0.8	
0.5	0.9	0.8	
0.4	0.9	0.8	
0.4	1	0.8	
0.5	1	0.8	
0.5	0.9	0.7	
0.4	0.9	0.7	
0.4	1	0.7	
0.5	1	0.7	
0.5	0.9	0.7	
0.4	0.9	0.7	
0.4	1	0.7	
0.5	1	0.7	
0.5	0.9	0.6	
0.4	0.9	0.6	
0.4	1	0.6	
0.5	1	0.6	
0.5	0.9	0.6	
0.4	0.9	0.6	
0.4	1	0.6	
0.5	1	0.6	
0.5	0.9	0.5	
0.4	0.9	0.5	
0.4	1	0.5	
0.5	1	0.5	
0.5	0.9	0.5	
0.4	0.9	0.5	
0.4	1	0.5	
0.5	1	0.5	
0.5	0.9	0.4	
0.4	0.9	0.4	
0.4	1	0.4	
0.5	1	0.4	
0.5	0.9	0.4	
0.4	0.9	0.4	
0.4	1	0.4	
0.5	1	0.4	
0.5	0.9	0.3	
0.4	0.9	0.3	
0.4	1	0.3	
0.5	1	0.3	
0.5	0.9	0.3	
0.4	0.9	0.3	
0.4	1	0.3	
0.5	1	0.3	
0.5	0.9	0.2	
0.4	0.9	0.2	
0.4	1	0.2	
0.5	1	0.2	
0.5	0.9	0.2	
0.4	0.9	0.2	
0.4	1	0.2	
0.5	1	0.2	
0.5	0.9	0.1	
0.4	0.9	0.1	
0.4	1	0.1	
0.5	1	0.1	
0.5	0.9	0.1	
0.4	0.9	0.1	
0.4	1	0.1	
0.5	1	0.1	
0.5	0.9	0	
0.4	0.9	0	
0.4	1	0	
0.5	1	0	
0.6	0.9	1	
0.5	0.9	1	
0.5	1	1	
0.6	1	1	
0.6	0.9	0.9	
0.5	0.9	0.9	
0.5	1	0.9	
0.6	1	0.9	
0.6	0.9	0.9	
0.5	0.9	0.9	
0.5	1	0.9	
0.6	1	0.9	
0.6	0.9	0.8	
0.5	0.9	0.8	
0.5	1	0.8	
0.6	1	0.8	
0.6	0.9	0.8	
0.5	0.9	0.8	
0.5	1	0.8	
0.6	1	0.8	
0.6	0.9	0.7	
0.5	0.9	0.7	
0.5	1	0.7	
0.6	1	0.7	
0.6	0.9	0.7	
0.5	0.9	0.7	
0.5	1	0.7	
0.6	1	0.7	
0.6	0.9	0.6	
0.5	0.9	0.6	
0.5	1	0.6	
0.6	1	0.6	
0.6	0.9	0.6	
0.5	0.9	0.6	
0.5	1	0.6	
0.6	1	0.6	
0.6	0.9	0.5	
0.5	0.9	0.5	
0.5	1	0.5	
0.6	1	0.5	
0.6	0.9	0.5	
0.5	0.9	0.5	
0.5	1	0.5	
0.6	1	0.5	
0.6	0.9	0.4	
0.5	0.9	0.4	
0.5	1	0.4	
0.6	1	0.4	
0.6	0.9	0.4	
0.5	0.9	0.4	
0.5	1	0.4	
0.6	1	0.4	
0.6	0.9	0.3	
0.5	0.9	0.3	
0.5	1	0.3	
0.6	1	0.3	
0.6	0.9	0.3	
0.5	0.9	0.3	
0.5	1	0.3	
0.6	1	0.3	
0.6	0.9	0.2	
0.5	0.9	0.2	
0.5	1	0.2	
0.6	1	0.2	
0.6	0.9	0.2	
0.5	0.9	0.2	
0.5	1	0.2	
0.6	1	0.2	
0.6	0.9	0.1	
0.5	0.9	0.1	
0.5	1	0.1	
0.6	1	0.1	
0.6	0.9	0.1	
0.5	0.9	0.1	
0.5	1	0.1	
0.6	1	0.1	
0.6	0.9	0	
0.5	0.9	0	
0.5	1	0	
0.6	1	0	
0.7	0.9	1	
0.6	0.9	1	
0.6	1	1	
0.7	1	1	
0.7	0.9	0.9	
0.6	0.9	0.9	
0.6	1	0.9	
0.7	1	0.9	
0.7	0.9	0.9	
0.6	0.9	0.9	
0.6	1	0.9	
0.7	1	0.9	
0.7	0.9	0.8	
0.6	0.9	0.8	
0.6	1	0.8	
0.7	1	0.8	
0.7	0.9	0.8	
0.6	0.9	0.8	
0.6	1	0.8	
0.7	1	0.8	
0.7	0.9	0.7	
0.6	0.9	0.7	
0.6	1	0.7	
0.7	1	0.7	
0.7	0.9	0.7	
0.6	0.9	0.7	
0.6	1	0.7	
0.7	1	0.7	
0.7	0.9	0.6	
0.6	0.9	0.6	
0.6	1	0.6	
0.7	1	0.6	
0.7	0.9	0.6	
0.6	0.9	0.6	
0.6	1	0.6	
0.7	1	0.6	
0.7	0.9	0.5	
0.6	0.9	0.5	
0.6	1	0.5	
0.7	1	0.5	
0.7	0.9	0.5	
0.6	0.9	0.5	
0.6	1	0.5	
0.7	1	0.5	
0.7	0.9	0.4	
0.6	0.9	0.4	
0.6	1	0.4	
0.7	1	0.4	
0.7	0.9	0.4	
0.6	0.9	0.4	
0.6	1	0.4	
0.7	1	0.4	
0.7	0.9	0.3	
0.6	0.9	0.3	
0.6	1	0.3	
0.7	1	0.3	
0.7	0.9	0.3	
0.6	0.9	0.3	
0.6	1	0.3	
0.7	1	0.3	
0.7	0.9	0.2	
0.6	0.9	0.2	
0.6	1	0.2	
0.7	1	0.2	
0.7	0.9	0.2	
0.6	0.9	0.2	
0.6	1	0.2	
0.7	1	0.2	
0.7	0.9	0.1	
0.6	0.9	0.1	
0.6	1	0.1	
0.7	1	0.1	
0.7	0.9	0.1	
0.6	0.9	0.1	
0.6	1	0.1	
0.7	1	0.1	
0.7	0.9	0	
0.6	0.9	0	
0.6	1	0	
0.7	1	0	
0.8	0.9	1	
0.7	0.9	1	
0.7	1	1	
0.8	1	1	
0.8	0.9	0.9	
0.7	0.9	0.9	
0.7	1	0.9	
0.8	1	0.9	
0.8	0.9	0.9	
0.7	0.9	0.9	
0.7	1	0.9	
0.8	1	0.9	
0.8	0.9	0.8	
0.7	0.9	0.8	
0.7	1	0.8	
0.8	1	0.8	
0.8	0.9	0.8	
0.7	0.9	0.8	
0.7	1	0.8	
0.8	1	0.8	
0.8	0.9	0.7	
0.7	0.9	0.7	
0.7	1	0.7	
0.8	1	0.7	
0.8	0.9	0.7	
0.7	0.9	0.7	
0.7	1	0.7	
0.8	1	0.7	
0.8	0.9	0.6	
0.7	0.9	0.6	
0.7	1	0.6	
0.8	1	0.6	
0.8	0.9	0.6	
0.7	0.9	0.6	
0.7	1	0.6	
0.8	1	0.6	
0.8	0.9	0.5	
0.7	0.9	0.5	
0.7	1	0.5	
0.8	1	0.5	
0.8	0.9	0.5	
0.7	0.9	0.5	
0.7	1	0.5	
0.8	1	0.5	
0.8	0.9	0.4	
0.7	0.9	0.4	
0.7	1	0.4	
0.8	1	0.4	
0.8	0.9	0.4	
0.7	0.9	0.4	
0.7	1	0.4	
0.8	1	0.4	
0.8	0.9	0.3	
0.7	0.9	0.3	
0.7	1	0.3	
0.8	1	0.3	
0.8	0.9	0.3	
0.7	0.9	0.3	
0.7	1	0.3	
0.8	1	0.3	
0.8	0.9	0.2	
0.7	0.9	0.2	
0.7	1	0.2	
0.8	1	0.2	
0.8	0.9	0.2	
0.7	0.9	0.2	
0.7	1	0.2	
0.8	1	0.2	
0.8	0.9	0.1	
0.7	0.9	0.1	
0.7	1	0.1	
0.8	1	0.1	
0.8	0.9	0.1	
0.7	0.9	0.1	
0.7	1	0.1	
0.8	1	0.1	
0.8	0.9	0	
0.7	0.9	0	
0.7	1	0	
0.8	1	0	
0.9	0.9	1	
0.8	0.9	1	
0.8	1	1	
0.9	1	1	
0.9	0.9	0.9	
0.8	0.9	0.9	
0.8	1	0.9	
0.9	1	0.9	
0.9	0.9	0.9	
0.8	0.9	0.9	
0.8	1	0.9	
0.9	1	0.9	
0.9	0.9	0.8	
0.8	0.9	0.8	
0.8	1	0.8	
0.9	1	0.8	
0.9	0.9	0.8	
0.8	0.9	0.8	
0.8	1	0.8	
0.9	1	0.8	
0.9	0.9	0.7	
0.8	0.9	0.7	
0.8	1	0.7	
0.9	1	0.7	
0.9	0.9	0.7	
0.8	0.9	0.7	
0.8	1	0.7	
0.9	1	0.7	
0.9	0.9	0.6	
0.8	0.9	0.6	
0.8	1	0.6	
0.9	1	0.6	
0.9	0.9	0.6	
0.8	0.9	0.6	
0.8	1	0.6	
0.9	1	0.6	
0.9	0.9	0.5	
0.8	0.9	0.5	
0.8	1	0.5	
0.9	1	0.5	
0.9	0.9	0.5	
0.8	0.9	0.5	
0.8	1	0.5	
0.9	1	0.5	
0.9	0.9	0.4	
0.8	0.9	0.4	
0.8	1	0.4	
0.9	1	0.4	
0.9	0.9	0.4	
0.8	0.9	0.4	
0.8	1	0.4	
0.9	1	0.4	
0.9	0.9	0.3	
0.8	0.9	0.3	
0.8	1	0.3	
0.9	1	0.3	
0.9	0.9	0.3	
0.8	0.9	0.3	
0.8	1	0.3	
0.9	1	0.3	
0.9	0.9	0.2	
0.8	0.9	0.2	
0.8	1	0.2	
0.9	1	0.2	
0.9	0.9	0.2	
0.8	0.9	0.2	
0.8	1	0.2	
0.9	1	0.2	
0.9	0.9	0.1	
0.8	0.9	0.1	
0.8	1	0.1	
0.9	1	0.1	
0.9	0.9	0.1	
0.8	0.9	0.1	
0.8	1	0.1	
0.9	1	0.1	
0.9	0.9	0	
0.8	0.9	0	
0.8	1	0	
0.9	1	0	
1	0.9	1	
0.9	0.9	1	
0.9	1	1	
1	1	1	
1	0.9	0.9	
0.9	0.9	0.9	
0.9	1	0.9	
1	1	0.9	
1	0.9	0.9	
0.9	0.9	0.9	
0.9	1	0.9	
1	1	0.9	
1	0.9	0.8	
0.9	0.9	0.8	
0.9	1	0.8	
1	1	0.8	
1	0.9	0.8	
0.9	0.9	0.8	
0.9	1	0.8	
1	1	0.8	
1	0.9	0.7	
0.9	0.9	0.7	
0.9	1	0.7	
1	1	0.7	
1	0.9	0.7	
0.9	0.9	0.7	
0.9	1	0.7	
1	1	0.7	
1	0.9	0.6	
0.9	0.9	0.6	
0.9	1	0.6	
1	1	0.6	
1	0.9	0.6	
0.9	0.9	0.6	
0.9	1	0.6	
1	1	0.6	
1	0.9	0.5	
0.9	0.9	0.5	
0.9	1	0.5	
1	1	0.5	
1	0.9	0.5	
0.9	0.9	0.5	
0.9	1	0.5	
1	1	0.5	
1	0.9	0.4	
0.9	0.9	0.4	
0.9	1	0.4	
1	1	0.4	
1	0.9	0.4	
0.9	0.9	0.4	
0.9	1	0.4	
1	1	0.4	
1	0.9	0.3	
0.9	0.9	0.3	
0.9	1	0.3	
1	1	0.3	
1	0.9	0.3	
0.9	0.9	0.3	
0.9	1	0.3	
1	1	0.3	
1	0.9	0.2	
0.9	0.9	0.2	
0.9	1	0.2	
1	1	0.2	
1	0.9	0.2	
0.9	0.9	0.2	
0.9	1	0.2	
1	1	0.2	
1	0.9	0.1	
0.9	0.9	0.1	
0.9	1	0.1	
1	1	0.1	
1	0.9	0.1	
0.9	0.9	0.1	
0.9	1	0.1	
1	1	0.1	
1	0.9	0	
0.9	0.9	0	
0.9	1	0	
1	1	0	
0.1	0.8	1	
0	0.8	1	
0	0.9	1	
0.1	0.9	1	
0.1	0.8	0.9	
0	0.8	0.9	
0	0.9	0.9	
0.1	0.9	0.9	
0.1	0.8	0.9	
0	0.8	0.9	
0	0.9	0.9	
0.1	0.9	0.9	
0.1	0.8	0.8	
0	0.8	0.8	
0	0.9	0.8	
0.1	0.9	0.8	
0.1	0.8	0.8	
0	0.8	0.8	
0	0.9	0.8	
0.1	0.9	0.8	
0.1	0.8	0.7	
0	0.8	0.7	
0	0.9	0.7	
0.1	0.9	0.7	
0.1	0.8	0.7	
0	0.8	0.7	
0	0.9	0.7	
0.1	0.9	0.7	
0.1	0.8	0.6	
0	0.8	0.6	
0	0.9	0.6	
0.1	0.9	0.6	
0.1	0.8	0.6	
0	0.8	0.6	
0	0.9	0.6	
0.1	0.9	0.6	
0.1	0.8	0.5	
0	0.8	0.5	
0	0.9	0.5	
0.1	0.9	0.5	
0.1	0.8	0.5	
0	0.8	0.5	
0	0.9	0.5	
0.1	0.9	0.5	
0.1	0.8	0.4	
0	0.8	0.4	
0	0.9	0.4	
0.1	0.9	0.4	
0.1	0.8	0.4	
0	0.8	0.4	
0	0.9	0.4	
0.1	0.9	0.4	
0.1	0.8	0.3	
[...]
CELL_DATA 1000
POINT_DATA 8000
SCALARS Pressure float 
LOOKUP_TABLE default
41.6196 41.6196 41.6196 41.6196 41.6196 41.6196 41.6196 41.6196 8.05542 8.05542 8.05542 8.05542 8.05542 8.05542 8.05542 8.05542 3.5675 3.5675 3.5675 3.5675 3.5675 3.5675 3.5675 3.5675 1.62025 1.62025 1.62025 1.62025 1.62025 1.62025 1.62025 1.62025 0.473991 0.473991 0.473991 0.473991 0.473991 0.473991 0.473991 0.473991 -0.473991 -0.473991 -0.473991 -0.473991 -0.473991 -0.473991 -0.473991 -0.473991 -1.62025 -1.62025 -1.62025 -1.62025 -1.62025 -1.62025 -1.62025 -1.62025 -3.5675 -3.5675 -3.5675 -3.5675 -3.5675 -3.5675 -3.5675 -3.5675 -8.05542 -8.05542 -8.05542 -8.05542 -8.05542 -8.05542 -8.05542 -8.05542 -41.6196 -41.6196 -41.6196 -41.6196 -41.6196 -41.6196 -41.6196 -41.6196 41.6262 41.6262 41.6262 41.6262 41.6262 41.6262 41.6262 41.6262 8.0623 8.0623 8.0623 8.0623 8.0623 8.0623 8.0623 8.0623 3.57357 3.57357 3.57357 3.57357 3.57357 3.57357 3.57357 3.57357 1.62441 1.62441 1.62441 1.62441 1.62441 1.62441 1.62441 1.62441 0.47547 0.47547 0.47547 0.47547 0.47547 0.47547 0.47547 0.47547 -0.47547 -0.47547 -0.47547 -0.47547 -0.47547 -0.47547 -0.47547 -0.47547 -1.62441 -1.62441 -1.62441 -1.62441 -1.62441 -1.62441 -1.62441 -1.62441 -3.57357 -3.57357 -3.57357 -3.57357 -3.57357 -3.57357 -3.57357 -3.57357 -8.0623 -8.0623 -8.0623 -8.0623 -8.0623 -8.0623 -8.0623 -8.0623 -41.6262 -41.6262 -41.6262 -41.6262 -41.6262 -41.6262 -41.6262 -41.6262 41.6415 41.6415 41.6415 41.6415 41.6415 41.6415 41.6415 41.6415 8.07823 8.07823 8.07823 8.07823 8.07823 8.07823 8.07823 8.07823 3.58752 3.58752 3.58752 3.58752 3.58752 3.58752 3.58752 3.58752 1.63396 1.63396 1.63396 1.63396 1.63396 1.63396 1.63396 1.63396 0.478859 0.478859 0.478859 0.478859 0.478859 0.478859 0.478859 0.478859 -0.478859 -0.478859 -0.478859 -0.478859 -0.478859 -0.478859 -0.478859 -0.478859 -1.63396 -1.63396 -1.63396 -1.63396 -1.63396 -1.63396 -1.63396 -1.63396 -3.58752 -3.58752 -3.58752 -3.58752 -3.58752 -3.58752 -3.58752 -3.58752 -8.07823 -8.07823 -8.07823 -8.07823 -8.07823 -8.07823 -8.07823 -8.07823 -41.6415 -41.6415 -41.6415 -41.6415 -41.6415 -41.6415 -41.6415 -41.6415 41.6707 41.6707 41.6707 41.6707 41.6707 41.6707 41.6707 41.6707 8.10832 8.10832 8.10832 8.10832 8.10832 8.10832 8.10832 8.10832 3.6137 3.6137 3.6137 3.6137 3.6137 3.6137 3.6137 3.6137 1.65179 1.65179 1.65179 1.65179 1.65179 1.65179 1.65179 1.65179 0.485178 0.485178 0.485178 0.485178 0.485178 0.485178 0.485178 0.485178 -0.485178 -0.485178 -0.485178 -0.485178 -0.485178 -0.485178 -0.485178 -0.485178 -1.65179 -1.65179 -1.65179 -1.65179 -1.65179 -1.65179 -1.65179 -1.65179 -3.6137 -3.6137 -3.6137 -3.6137 -3.6137 -3.6137 -3.6137 -3.6137 -8.10832 -8.10832 -8.10832 -8.10832 -8.10832 -8.10832 -8.10832 -8.10832 -41.6707 -41.6707 -41.6707 -41.6707 -41.6707 -41.6707 -41.6707 -41.6707 41.7237 41.7237 41.7237 41.7237 41.7237 41.7237 41.7237 41.7237 8.16223 8.16223 8.16223 8.16223 8.16223 8.16223 8.16223 8.16223 3.66049 3.66049 3.66049 3.66049 3.66049 3.66049 3.66049 3.66049 1.68361 1.68361 1.68361 1.68361 1.68361 1.68361 1.68361 1.68361 0.496431 0.496431 0.496431 0.496431 0.496431 0.496431 0.496431 0.496431 -0.496431 -0.496431 -0.496431 -0.496431 -0.496431 -0.496431 -0.496431 -0.496431 -1.68361 -1.68361 -1.68361 -1.68361 -1.68361 -1.68361 -1.68361 -1.68361 -3.66049 -3.66049 -3.66049 -3.66049 -3.66049 -3.66049 -3.66049 -3.66049 -8.16223 -8.16223 -8.16223 -8.16223 -8.16223 -8.16223 -8.16223 -8.16223 -41.7237 -41.7237 -41.7237 -41.7237 -41.7237 -41.7237 -41.7237 -41.7237 41.8193 41.8193 41.8193 41.8193 41.8193 41.8193 41.8193 41.8193 8.25951 8.25951 8.25951 8.25951 8.25951 8.25951 8.25951 8.25951 3.74468 3.74468 3.74468 3.74468 3.74468 3.74468 3.74468 3.74468 1.7405 1.7405 1.7405 1.7405 1.7405 1.7405 1.7405 1.7405 0.516504 0.516504 0.516504 0.516504 0.516504 0.516504 0.516504 0.516504 -0.516504 -0.516504 -0.516504 -0.516504 -0.516504 -0.516504 -0.516504 -0.516504 -1.7405 -1.7405 -1.7405 -1.7405 -1.7405 -1.7405 -1.7405 -1.7405 -3.74468 -3.74468 -3.74468 -3.74468 -3.74468 -3.74468 -3.74468 -3.74468 -8.25951 -8.25951 -8.25951 -8.25951 -8.25951 -8.25951 -8.25951 -8.25951 -41.8193 -41.8193 -41.8193 -41.8193 -41.8193 -41.8193 -41.8193 -41.8193 41.9936 41.9936 41.9936 41.9936 41.9936 41.9936 41.9936 41.9936 8.43693 8.43693 8.43693 8.43693 8.43693 8.43693 8.43693 8.43693 3.89805 3.89805 3.89805 3.89805 3.89805 3.89805 3.89805 3.89805 1.84457 1.84457 1.84457 1.84457 1.84457 1.84457 1.84457 1.84457 0.553074 0.553074 0.553074 0.553074 0.553074 0.553074 0.553074 0.553074 -0.553074 -0.553074 -0.553074 -0.553074 -0.553074 -0.553074 -0.553074 -0.553074 -1.84457 -1.84457 -1.84457 -1.84457 -1.84457 -1.84457 -1.84457 -1.84457 -3.89806 -3.89806 -3.89806 -3.89806 -3.89806 -3.89806 -3.89806 -3.89806 -8.43693 -8.43693 -8.43693 -8.43693 -8.43693 -8.43693 -8.43693 -8.43693 -41.9936 -41.9936 -41.9936 -41.9936 -41.9936 -41.9936 -41.9936 -41.9936 42.3151 42.3151 42.3151 42.3151 42.3151 42.3151 42.3151 42.3151 8.76468 8.76468 8.76468 8.76468 8.76468 8.76468 8.76468 8.76468 4.19477 4.19477 4.19477 4.19477 4.19477 4.19477 4.19477 4.19477 2.03758 2.03758 2.03758 2.03758 2.03758 2.03758 2.03758 2.03758 0.618154 0.618154 0.618154 0.618154 0.618154 0.618154 0.618154 0.618154 -0.618155 -0.618155 -0.618155 -0.618155 -0.618155 -0.618155 -0.618155 -0.618155 -2.03758 -2.03758 -2.03758 -2.03758 -2.03758 -2.03758 -2.03758 -2.03758 -4.19477 -4.19477 -4.19477 -4.19477 -4.19477 -4.19477 -4.19477 -4.19477 -8.76468 -8.76468 -8.76468 -8.76468 -8.76468 -8.76468 -8.76468 -8.76468 -42.3151 -42.3151 -42.3151 -42.3151 -42.3151 -42.3151 -42.3151 -42.3151 43.1447 43.1447 43.1447 43.1447 43.1447 43.1447 43.1447 43.1447 9.68602 9.68602 9.68602 9.68602 9.68602 9.68602 9.68602 9.68602 4.83594 4.83594 4.83594 4.83594 4.83594 4.83594 4.83594 4.83594 2.36398 2.36398 2.36398 2.36398 2.36398 2.36398 2.36398 2.36398 0.716824 0.716824 0.716824 0.716824 0.716824 0.716824 0.716824 0.716824 -0.716824 -0.716824 -0.716824 -0.716824 -0.716824 -0.716824 -0.716824 -0.716824 -2.36398 -2.36398 -2.36398 -2.36398 -2.36398 -2.36398 -2.36398 -2.36398 -4.83594 -4.83594 -4.83594 -4.83594 -4.83594 -4.83594 -4.83594 -4.83594 -9.68602 -9.68602 -9.68602 -9.68602 -9.68602 -9.68602 -9.68602 -9.68602 -43.1447 -43.1447 -43.1447 -43.1447 -43.1447 -43.1447 -43.1447 -43.1447 45.8885 45.8885 45.8885 45.8885 45.8885 45.8885 45.8885 45.8885 10.9052 10.9052 10.9052 10.9052 10.9052 10.9052 10.9052 10.9052 5.30899 5.30899 5.30899 5.30899 5.30899 5.30899 5.30899 5.30899 2.57232 2.57232 2.57232 2.57232 2.57232 2.57232 2.57232 2.57232 0.772675 0.772675 0.772675 0.772675 0.772675 0.772675 0.772675 0.772675 -0.772675 -0.772675 -0.772675 -0.772675 -0.772675 -0.772675 -0.772675 -0.772675 -2.57232 -2.57232 -2.57232 -2.57232 -2.57232 -2.57232 -2.57232 -2.57232 -5.30899 -5.30899 -5.30899 -5.30899 -5.30899 -5.30899 -5.30899 -5.30899 -10.9052 -10.9052 -10.9052 -10.9052 -10.9052 -10.9052 -10.9052 -10.9052 -45.8885 -45.8885 -45.8885 -45.8885 -45.8885 -45.8885 -45.8885 -45.8885 12.5108 12.5108 12.5108 12.5108 12.5108 12.5108 12.5108 12.5108 8.09934 8.09934 8.09934 8.09934 8.09934 8.09934 8.09934 8.09934 4.57366 4.57366 4.57366 4.57366 4.57366 4.57366 4.57366 4.57366 2.14491 2.14491 2.14491 2.14491 2.14491 2.14491 2.14491 2.14491 0.646934 0.646934 0.646934 0.646934 0.646934 0.646934 0.646934 0.646934 -0.646935 -0.646935 -0.646935 -0.646935 -0.646935 -0.646935 -0.646935 -0.646935 -2.14491 -2.14491 -2.14491 -2.14491 -2.14491 -2.14491 -2.14491 -2.14491 -4.57366 -4.57366 -4.57366 -4.57366 -4.57366 -4.57366 -4.57366 -4.57366 -8.09934 -8.09934 -8.09934 -8.09934 -8.09934 -8.09934 -8.09934 -8.09934 -12.5108 -12.5108 -12.5108 -12.5108 -12.5108 -12.5108 -12.5108 -12.5108 12.5169 12.5169 12.5169 12.5169 12.5169 12.5169 12.5169 12.5169 8.10626 8.10626 8.10626 8.10626 8.10626 8.10626 8.10626 8.10626 4.57986 4.57986 4.57986 4.57986 4.57986 4.57986 4.57986 4.57986 2.14916 2.14916 2.14916 2.14916 2.14916 2.14916 2.14916 2.14916 0.648443 0.648443 0.648443 0.648443 0.648443 0.648443 0.648443 0.648443 -0.648444 -0.648444 -0.648444 -0.648444 -0.648444 -0.648444 -0.648444 -0.648444 -2.14916 -2.14916 -2.14916 -2.14916 -2.14916 -2.14916 -2.14916 -2.14916 -4.57986 -4.57986 -4.57986 -4.57986 -4.57986 -4.57986 -4.57986 -4.57986 -8.10626 -8.10626 -8.10626 -8.10626 -8.10626 -8.10626 -8.10626 -8.10626 -12.5169 -12.5169 -12.5169 -12.5169 -12.5169 -12.5169 -12.5169 -12.5169 12.531 12.531 12.531 12.531 12.531 12.531 12.531 12.531 8.12216 8.12216 8.12216 8.12216 8.12216 8.12216 8.12216 8.12216 4.59397 4.59397 4.59397 4.59397 4.59397 4.59397 4.59397 4.59397 2.15879 2.15879 2.15879 2.15879 2.15879 2.15879 2.15879 2.15879 0.651852 0.651852 0.651852 0.651852 0.651852 0.651852 0.651852 0.651852 -0.651852 -0.651852 -0.651852 -0.651852 -0.651852 -0.651852 -0.651852 -0.651852 -2.15879 -2.15879 -2.15879 -2.15879 -2.15879 -2.15879 -2.15879 -2.15879 -4.59397 -4.59397 -4.59397 -4.59397 -4.59397 -4.59397 -4.59397 -4.59397 -8.12216 -8.12216 -8.12216 -8.12216 -8.12216 -8.12216 -8.12216 -8.12216 -12.531 -12.531 -12.531 -12.531 -12.531 -12.531 -12.531 -12.531 12.5578 12.5578 12.5578 12.5578 12.5578 12.5578 12.5578 12.5578 8.15165 8.15165 8.15165 8.15165 8.15165 8.15165 8.15165 8.15165 4.61985 4.61985 4.61985 4.61985 4.61985 4.61985 4.61985 4.61985 2.17632 2.17632 2.17632 2.17632 2.17632 2.17632 2.17632 2.17632 0.658036 0.658036 0.658036 0.658036 0.658036 0.658036 0.658036 0.658036 -0.658036 -0.658036 -0.658036 -0.658036 -0.658036 -0.658036 -0.658036 -0.658036 -2.17632 -2.17632 -2.17632 -2.17632 -2.17632 -2.17632 -2.17632 -2.17632 -4.61985 -4.61985 -4.61985 -4.61985 -4.61985 -4.61985 -4.61985 -4.61985 -8.15165 -8.15165 -8.15165 -8.15165 -8.15165 -8.15165 -8.15165 -8.15165 -12.5578 -12.5578 -12.5578 -12.5578 -12.5578 -12.5578 -12.5578 -12.5578 12.6059 12.6059 12.6059 12.6059 12.6059 12.6059 12.6059 12.6059 8.20334 8.20334 8.20334 8.20334 8.20334 8.20334 8.20334 8.20334 4.66455 4.66455 4.66455 4.66455 4.66455 4.66455 4.66455 4.66455 2.20631 2.20631 2.20631 2.20631 2.20631 2.20631 2.20631 2.20631 0.668565 0.668565 0.668565 0.668565 0.668565 0.668565 0.668565 0.668565 -0.668565 -0.668565 -0.668565 -0.668565 -0.668565 -0.668565 -0.668565 -0.668565 -2.20632 -2.20632 -2.20632 -2.20632 -2.20632 -2.20632 -2.20632 -2.20632 -4.66455 -4.66455 -4.66455 -4.66455 -4.66455 -4.66455 -4.66455 -4.66455 -8.20334 -8.20334 -8.20334 -8.20334 -8.20334 -8.20334 -8.20334 -8.20334 -12.6059 -12.6059 -12.6059 -12.6059 -12.6059 -12.6059 -12.6059 -12.6059 12.6898 12.6898 12.6898 12.6898 12.6898 12.6898 12.6898 12.6898 8.29099 8.29099 8.29099 8.29099 8.29099 8.29099 8.29099 8.29099 4.73971 4.73971 4.73971 4.73971 4.73971 4.73971 4.73971 4.73971 2.25628 2.25628 2.25628 2.25628 2.25628 2.25628 2.25628 2.25628 0.686012 0.686012 0.686012 0.686012 0.686012 0.686012 0.686012 0.686012 -0.686012 -0.686012 -0.686012 -0.686012 -0.686012 -0.686012 -0.686012 -0.686012 -2.25628 -2.25628 -2.25628 -2.25628 -2.25628 -2.25628 -2.25628 -2.25628 -4.73971 -4.73971 -4.73971 -4.73971 -4.73971 -4.73971 -4.73971 -4.73971 -8.29099 -8.29099 -8.29099 -8.29099 -8.29099 -8.29099 -8.29099 -8.29099 -12.6898 -12.6898 -12.6898 -12.6898 -12.6898 -12.6898 -12.6898 -12.6898 12.8299 12.8299 12.8299 12.8299 12.8299 12.8299 12.8299 12.8299 8.44059 8.44059 8.44059 8.44059 8.44059 8.44059 8.44059 8.44059 4.86456 4.86456 4.86456 4.86456 4.86456 4.86456 4.86456 4.86456 2.33768 2.33768 2.33768 2.33768 2.33768 2.33768 2.33768 2.33768 0.714141 0.714141 0.714141 0.714141 0.714141 0.714141 0.714141 0.714141 -0.714141 -0.714141 -0.714141 -0.714141 -0.714141 -0.714141 -0.714141 -0.714141 -2.33768 -2.33768 -2.33768 -2.33768 -2.33768 -2.33768 -2.33768 -2.33768 -4.86456 -4.86456 -4.86456 -4.86456 -4.86456 -4.86456 -4.86456 -4.86456 -8.44059 -8.44059 -8.44059 -8.44059 -8.44059 -8.44059 -8.44059 -8.44059 -12.8299 -12.8299 -12.8299 -12.8299 -12.8299 -12.8299 -12.8299 -12.8299 13.1003 13.1003 13.1003 13.1003 13.1003 13.1003 13.1003 13.1003 8.68528 8.68528 8.68528 8.68528 8.68528 8.68528 8.68528 8.68528 5.06486 5.06486 5.06486 5.06486 5.06486 5.06486 5.06486 5.06486 2.46315 2.46315 2.46315 2.46315 2.46315 2.46315 2.46315 2.46315 0.756032 0.756032 0.756032 0.756032 0.756032 0.756032 0.756032 0.756032 -0.756032 -0.756032 -0.756032 -0.756032 -0.756032 -0.756032 -0.756032 -0.756032 -2.46315 -2.46315 -2.46315 -2.46315 -2.46315 -2.46315 -2.46315 -2.46315 -5.06486 -5.06486 -5.06486 -5.06486 -5.06486 -5.06486 -5.06486 -5.06486 -8.68528 -8.68528 -8.68528 -8.68528 -8.68528 -8.68528 -8.68528 -8.68528 -13.1003 -13.1003 -13.1003 -13.1003 -13.1003 -13.1003 -13.1003 -13.1003 13.3468 13.3468 13.3468 13.3468 13.3468 13.3468 13.3468 13.3468 8.9577 8.9577 8.9577 8.9577 8.9577 8.9577 8.9577 8.9577 5.2952 5.2952 5.2952 5.2952 5.2952 5.2952 5.2952 5.2952 2.60657 2.60657 2.60657 2.60657 2.60657 2.60657 2.60657 2.60657 0.802154 0.802154 0.802154 0.802154 0.802154 0.802154 0.802154 0.802154 -0.802154 -0.802154 -0.802154 -0.802154 -0.802154 -0.802154 -0.802154 -0.802154 -2.60657 -2.60657 -2.60657 -2.60657 -2.60657 -2.60657 -2.60657 -2.60657 -5.2952 -5.2952 -5.2952 -5.2952 -5.2952 -5.2952 -5.2952 -5.2952 -8.9577 -8.9577 -8.9577 -8.9577 -8.9577 -8.9577 -8.9577 -8.9577 -13.3468 -13.3468 -13.3468 -13.3468 -13.3468 -13.3468 -13.3468 -13.3468 13.2899 13.2899 13.2899 13.2899 13.2899 13.2899 13.2899 13.2899 9.25899 9.25899 9.25899 9.25899 9.25899 9.25899 9.25899 9.25899 5.28023 5.28023 5.28023 5.28023 5.28023 5.28023 5.28023 5.28023 2.59593 2.59593 2.59593 2.59593 2.59593 2.59593 2.59593 2.59593 0.79777 0.79777 0.79777 0.79777 0.79777 0.79777 0.79777 0.79777 -0.79777 -0.79777 -0.79777 -0.79777 -0.79777 -0.79777 -0.79777 -0.79777 -2.59593 -2.59593 -2.59593 -2.59593 -2.59593 -2.59593 -2.59593 -2.59593 -5.28023 -5.28023 -5.28023 -5.28023 -5.28023 -5.28023 -5.28023 -5.28023 -9.25899 -9.25899 -9.25899 -9.25899 -9.25899 -9.25899 -9.25899 -9.25899 -13.2899 -13.2899 -13.2899 -13.2899 -13.2899 -13.2899 -13.2899 -13.2899 5.24273 5.24273 5.24273 5.24273 5.24273 5.24273 5.24273 5.24273 5.28055 5.28055 5.28055 5.28055 5.28055 5.28055 5.28055 5.28055 3.59105 3.59105 3.59105 3.59105 3.59105 3.59105 3.59105 3.59105 1.96435 1.96435 1.96435 1.96435 1.96435 1.96435 1.96435 1.96435 0.621402 0.621402 0.621402 0.621402 0.621402 0.621402 0.621402 0.621402 -0.621402 -0.621402 -0.621402 -0.621402 -0.621402 -0.621402 -0.621402 -0.621402 -1.96435 -1.96435 -1.96435 -1.96435 -1.96435 -1.96435 -1.96435 -1.96435 -3.59105 -3.59105 -3.59105 -3.59105 -3.59105 -3.59105 -3.59105 -3.59105 -5.28055 -5.28055 -5.28055 -5.28055 -5.28055 -5.28055 -5.28055 -5.28055 -5.24273 -5.24273 -5.24273 -5.24273 -5.24273 -5.24273 -5.24273 -5.24273 5.24777 5.24777 5.24777 5.24777 5.24777 5.24777 5.24777 5.24777 5.28678 5.28678 5.28678 5.28678 5.28678 5.28678 5.28678 5.28678 3.59678 3.59678 3.59678 3.59678 3.59678 3.59678 3.59678 3.59678 1.9683 1.9683 1.9683 1.9683 1.9683 1.9683 1.9683 1.9683 0.622805 0.622805 0.622805 0.622805 0.622805 0.622805 0.622805 0.622805 -0.622805 -0.622805 -0.622805 -0.622805 -0.622805 -0.622805 -0.622805 -0.622805 -1.9683 -1.9683 -1.9683 -1.9683 -1.9683 -1.9683 -1.9683 -1.9683 -3.59678 -3.59678 -3.59678 -3.59678 -3.59678 -3.59678 -3.59678 -3.59678 -5.28678 -5.28678 -5.28678 -5.28678 -5.28678 -5.28678 -5.28678 -5.28678 -5.24777 -5.24777 -5.24777 -5.24777 -5.24777 -5.24777 -5.24777 -5.24777 5.25956 5.25956 5.25956 5.25956 5.25956 5.25956 5.25956 5.25956 5.30093 5.30093 5.30093 5.30093 5.30093 5.30093 5.30093 5.30093 3.60961 3.60961 3.60961 3.60961 3.60961 3.60961 3.60961 3.60961 1.97709 1.97709 1.97709 1.97709 1.97709 1.97709 1.97709 1.97709 0.625914 0.625914 0.625914 0.625914 0.625914 0.625914 0.625914 0.625914 -0.625914 -0.625914 -0.625914 -0.625914 -0.625914 -0.625914 -0.625914 -0.625914 -1.97709 -1.97709 -1.97709 -1.97709 -1.97709 -1.97709 -1.97709 -1.97709 -3.60961 -3.60961 -3.60961 -3.60961 -3.60961 -3.60961 -3.60961 -3.60961 -5.30093 -5.30093 -5.30093 -5.30093 -5.30093 -5.30093 -5.30093 -5.30093 -5.25956 -5.25956 -5.25956 -5.25956 -5.25956 -5.25956 -5.25956 -5.25956 5.2819 5.2819 5.2819 5.2819 5.2819 5.2819 5.2819 5.2819 5.32667 5.32667 5.32667 5.32667 5.32667 5.32667 5.32667 5.32667 3.63249 3.63249 3.63249 3.63249 3.63249 3.63249 3.63249 3.63249 1.99256 1.99256 1.99256 1.99256 1.99256 1.99256 1.99256 1.99256 0.631361 0.631361 0.631361 0.631361 0.631361 0.631361 0.631361 0.631361 -0.631361 -0.631361 -0.631361 -0.631361 -0.631361 -0.631361 -0.631361 -0.631361 -1.99256 -1.99256 -1.99256 -1.99256 -1.99256 -1.99256 -1.99256 -1.99256 -3.63249 -3.63249 -3.63249 -3.63249 -3.63249 -3.63249 -3.63249 -3.63249 -5.32667 -5.32667 -5.32667 -5.32667 -5.32667 -5.32667 -5.32667 -5.32667 -5.2819 -5.2819 -5.2819 -5.2819 -5.2819 -5.2819 -5.2819 -5.2819 5.32109 5.32109 5.32109 5.32109 5.32109 5.32109 5.32109 5.32109 5.36999 5.36999 5.36999 5.36999 5.36999 5.36999 5.36999 5.36999 3.67007 3.67007 3.67007 3.67007 3.67007 3.67007 3.67007 3.67007 2.01763 2.01763 2.01763 2.01763 2.01763 2.01763 2.01763 2.01763 0.640124 0.640124 0.640124 0.640124 0.640124 0.640124 0.640124 0.640124 -0.640124 -0.640124 -0.640124 -0.640124 -0.640124 -0.640124 -0.640124 -0.640124 -2.01763 -2.01763 -2.01763 -2.01763 -2.01763 -2.01763 -2.01763 -2.01763 -3.67007 -3.67007 -3.67007 -3.67007 -3.67007 -3.67007 -3.67007 -3.67007 -5.36999 -5.36999 -5.36999 -5.36999 -5.36999 -5.36999 -5.36999 -5.36999 -5.32109 -5.32109 -5.32109 -5.32109 -5.32109 -5.32109 -5.32109 -5.32109 5.38716 5.38716 5.38716 5.38716 5.38716 5.38716 5.38716 5.38716 5.43964 5.43964 5.43964 5.43964 5.43964 5.43964 5.43964 5.43964 3.72867 3.72867 3.72867 3.72867 3.72867 3.72867 3.72867 3.72867 2.05598 2.05598 2.05598 2.05598 2.05598 2.05598 2.05598 2.05598 0.653411 0.653411 0.653411 0.653411 0.653411 0.653411 0.653411 0.653411 -0.653411 -0.653411 -0.653411 -0.653411 -0.653411 -0.653411 -0.653411 -0.653411 -2.05598 -2.05598 -2.05598 -2.05598 -2.05598 -2.05598 -2.05598 -2.05598 -3.72867 -3.72867 -3.72867 -3.72867 -3.72867 -3.72867 -3.72867 -3.72867 -5.43964 -5.43964 -5.43964 -5.43964 -5.43964 -5.43964 -5.43964 -5.43964 -5.38716 -5.38716 -5.38716 -5.38716 -5.38716 -5.38716 -5.38716 -5.38716 5.49316 5.49316 5.49316 5.49316 5.49316 5.49316 5.49316 5.49316 5.54615 5.54615 5.54615 5.54615 5.54615 5.54615 5.54615 5.54615 3.81373 3.81373 3.81373 3.81373 3.81373 3.81373 3.81373 3.81373 2.1101 2.1101 2.1101 2.1101 2.1101 2.1101 2.1101 2.1101 0.671952 0.671952 0.671952 0.671952 0.671952 0.671952 0.671952 0.671952 -0.671952 -0.671952 -0.671952 -0.671952 -0.671952 -0.671952 -0.671952 -0.671952 -2.1101 -2.1101 -2.1101 -2.1101 -2.1101 -2.1101 -2.1101 -2.1101 -3.81373 -3.81373 -3.81373 -3.81373 -3.81373 -3.81373 -3.81373 -3.81373 -5.54615 -5.54615 -5.54615 -5.54615 -5.54615 -5.54615 -5.54615 -5.54615 -5.49316 -5.49316 -5.49316 -5.49316 -5.49316 -5.49316 -5.49316 -5.49316 5.64797 5.64797 5.64797 5.64797 5.64797 5.64797 5.64797 5.64797 5.68876 5.68876 5.68876 5.68876 5.68876 5.68876 5.68876 5.68876 3.91282 3.91282 3.91282 3.91282 3.91282 3.91282 3.91282 3.91282 2.17055 2.17055 2.17055 2.17055 2.17055 2.17055 2.17055 2.17055 0.692534 0.692534 0.692534 0.692534 0.692534 0.692534 0.692534 0.692534 -0.692534 -0.692534 -0.692534 -0.692534 -0.692534 -0.692534 -0.692534 -0.692534 -2.17055 -2.17055 -2.17055 -2.17055 -2.17055 -2.17055 -2.17055 -2.17055 -3.91282 -3.91282 -3.91282 -3.91282 -3.91282 -3.91282 -3.91282 -3.91282 -5.68876 -5.68876 -5.68876 -5.68876 -5.68876 -5.68876 -5.68876 -5.68876 -5.64797 -5.64797 -5.64797 -5.64797 -5.64797 -5.64797 -5.64797 -5.64797 5.96005 5.96005 5.96005 5.96005 5.96005 5.96005 5.96005 5.96005 5.82606 5.82606 5.82606 5.82606 5.82606 5.82606 5.82606 5.82606 3.96027 3.96027 3.96027 3.96027 3.96027 3.96027 3.96027 3.96027 2.20017 2.20017 2.20017 2.20017 2.20017 2.20017 2.20017 2.20017 0.703679 0.703679 0.703679 0.703679 0.703679 0.703679 0.703679 0.703679 -0.703679 -0.703679 -0.703679 -0.703679 -0.703679 -0.703679 -0.703679 -0.703679 -2.20017 -2.20017 -2.20017 -2.20017 -2.20017 -2.20017 -2.20017 -2.20017 -3.96027 -3.96027 -3.96027 -3.96027 -3.96027 -3.96027 -3.96027 -3.96027 -5.82606 -5.82606 -5.82606 -5.82606 -5.82606 -5.82606 -5.82606 -5.82606 -5.9