# vtk DataFile Version 3.0
vtk output
ASCII
DATASET UNSTRUCTURED_GRID
POINTS 23836 float
0.110881	-0.0319284	0.263307	
0.185118	-0.0448541	0.130581	
0.0785366	-0.11627	0.176642	
0.0395065	-0.000100258	0.126114	
0.135296	0.0693292	0.185912	
0.185118	-0.0448541	0.130581	
0.110881	-0.0319284	0.263307	
0.0395065	-0.000100258	0.126114	
-0.120748	-0.291511	0.335128	
-0.138366	-0.358353	0.236796	
-0.0825799	-0.384765	0.390495	
-0.162242	-0.337279	0.406019	
0.193272	-0.26142	0.329316	
0.186731	-0.150807	0.387359	
0.314006	-0.186162	0.367048	
0.268239	-0.118327	0.326702	
-0.142648	-0.00714059	0	
-0.202717	-0.0800005	0.134359	
-0.165601	0.0438592	0.172089	
-0.259075	0.0657144	0.105374	
-0.345553	0.109975	0.5	
-0.38814	0.0365087	0.390101	
-0.332155	0.186259	0.378016	
-0.268272	0.128138	0.411267	
0.314006	-0.186162	0.367048	
0.186731	-0.150807	0.387359	
0.271058	-0.153206	0.5	
0.249091	-0.0823301	0.40832	
-0.0565919	-0.339726	0.150695	
0.0248177	-0.313374	0	
0.00964811	-0.213747	0.128268	
0.0206176	-0.395667	0.103453	
0.0651412	0.200096	0	
0.0985518	0.185902	0.12959	
-0.0606721	0.230593	0.106057	
0.0431438	0.101726	0.0953265	
0.0952672	-0.342147	0.15717	
0.00964811	-0.213747	0.128268	
0.0248177	-0.313374	0	
0.0206176	-0.395667	0.103453	
0.0519196	-0.186143	0.5	
0.0848044	-0.241311	0.380971	
0.0135874	-0.118011	0.409404	
0.110665	-0.131179	0.419604	
0.247057	0.434698	0.250499	
0.132803	0.332442	0.177	
0.234881	0.32259	0.246366	
0.14467	0.301705	0.287535	
0.0807477	0.493437	0.154224	
0.0594116	0.385605	0.105978	
0.0693948	0.36903	0.285155	
-0.0333766	0.391369	0.240112	
-0.0833333	0.3	0.5	
-0.123171	0.237068	0.386906	
-0.144981	0.358558	0.378678	
-0.0163515	0.266982	0.412579	
0.0535407	0.120642	0.5	
0.0999373	0.153076	0.5	
0.108346	0.0977259	0.5	
0.086989	0.179344	0.400327	
0.184962	0.0799289	0	
0.251686	0.10803	0.129438	
0.155737	0.108922	0.093738	
0.126165	0.019123	0.0935695	
0.0519196	-0.186143	0.5	
0.0848044	-0.241311	0.380971	
-0.0254015	-0.238675	0.394183	
0.0135874	-0.118011	0.409404	
0.163607	-0.084363	0.326696	
0.268239	-0.118327	0.326702	
0.186731	-0.150807	0.387359	
0.134803	-0.19156	0.335814	
-0.5	0	0.2	
-0.493378	0.0811073	0.146993	
-0.360873	0.0158982	0.275217	
-0.377341	0.0879068	0.111753	
0.220621	-0.0913842	0.253691	
0.163607	-0.084363	0.326696	
0.142415	-0.180509	0.253145	
0.268239	-0.118327	0.326702	
-0.3	0.0833333	0.5	
-0.259187	0.0363748	0.408672	
-0.38814	0.0365087	0.390101	
-0.268272	0.128138	0.411267	
0.0230591	-0.35567	0.355674	
0.0848044	-0.241311	0.380971	
0.0203259	-0.249482	0.251542	
-0.0254015	-0.238675	0.394183	
0.271058	-0.153206	0.5	
0.186731	-0.150807	0.387359	
0.314006	-0.186162	0.367048	
0.249979	-0.247703	0.407586	
-0.0112682	-5.37735e-05	0.248563	
0.0395065	-0.000100258	0.126114	
0.110881	-0.0319284	0.263307	
-0.0286268	-0.0663675	0.186281	
-0.142648	-0.00714059	0	
-0.165601	0.0438592	0.172089	
-0.202717	-0.0800005	0.134359	
-0.0801458	-0.0255891	0.118207	
0.0203259	-0.249482	0.251542	
-0.120748	-0.291511	0.335128	
-0.0254015	-0.238675	0.394183	
-0.0547597	-0.189651	0.263151	
-0.3	0.0833333	0.5	
-0.38814	0.0365087	0.390101	
-0.259187	0.0363748	0.408672	
-0.32522	-0.00468432	0.424344	
0.210156	-0.0147965	0	
0.251686	0.10803	0.129438	
0.185118	-0.0448541	0.130581	
0.285128	-0.0586701	0.102886	
-0.2234	-0.212186	0.369318	
-0.338135	-0.204677	0.398089	
-0.234283	-0.304583	0.2878	
-0.250192	-0.304018	0.405469	
-0.329023	-0.172142	0.292634	
-0.234283	-0.304583	0.2878	
-0.2234	-0.212186	0.369318	
-0.338135	-0.204677	0.398089	
-0.386792	-0.316847	0.301384	
-0.234283	-0.304583	0.2878	
-0.338135	-0.204677	0.398089	
-0.250192	-0.304018	0.405469	
0.142415	-0.180509	0.253145	
0.268239	-0.118327	0.326702	
0.163607	-0.084363	0.326696	
0.134803	-0.19156	0.335814	
0.332733	-0.27561	0.5	
0.295465	-0.212132	0.5	
0.314006	-0.186162	0.367048	
0.249979	-0.247703	0.407586	
-0.0411735	0.316432	0.326214	
-0.0333766	0.391369	0.240112	
-0.144981	0.358558	0.378678	
-0.0106277	0.407378	0.33212	
-0.399482	0.123001	0.5	
-0.332155	0.186259	0.378016	
-0.345553	0.109975	0.5	
-0.38814	0.0365087	0.390101	
0.185118	-0.0448541	0.130581	
0.251686	0.10803	0.129438	
0.210156	-0.0147965	0	
0.126165	0.019123	0.0935695	
-0.220621	-0.0913842	0.273465	
-0.360873	0.0158982	0.275217	
-0.323059	-0.0556697	0.363619	
-0.259249	-0.00709893	0.335751	
-0.277785	-0.415735	0.134138	
-0.193999	-0.271016	0.175767	
-0.257824	-0.4284	0.204976	
-0.16153	-0.357052	0.106281	
-0.171353	-0.469721	0.338334	
-0.138366	-0.358353	0.236796	
-0.234283	-0.304583	0.2878	
-0.162242	-0.337279	0.406019	
0.110881	-0.0319284	0.263307	
0.0395065	-0.000100258	0.126114	
0.0785366	-0.11627	0.176642	
-0.0286268	-0.0663675	0.186281	
0.112799	-0.33356	0	
0.116361	-0.190469	0.100844	
0.0952672	-0.342147	0.15717	
0.219334	-0.328412	0.103652	
0.268117	-0.201453	0.257301	
0.361187	-0.127724	0.273645	
0.314006	-0.186162	0.367048	
0.283545	-0.259908	0.324527	
-0.0411735	0.316432	0.326214	
-0.144119	0.318458	0.266738	
-0.144981	0.358558	0.378678	
-0.0333766	0.391369	0.240112	
0.0807477	0.493437	0.154224	
0.132803	0.332442	0.177	
0.0693948	0.36903	0.285155	
0.0594116	0.385605	0.105978	
1.83697e-17	0.216667	0.5	
-0.0201888	0.188065	0.366	
0.086989	0.179344	0.400327	
0.016747	0.116372	0.415368	
-0.278713	-0.14304	0	
-0.302044	-0.0506462	0	
-0.304937	-0.166182	0.150677	
-0.202717	-0.0800005	0.134359	
-0.386792	-0.316847	0.301384	
-0.234283	-0.304583	0.2878	
-0.329023	-0.172142	0.292634	
-0.338135	-0.204677	0.398089	
0.321456	-0.142755	0.153578	
0.268117	-0.201453	0.257301	
0.428104	-0.258315	0.196896	
0.361187	-0.127724	0.273645	
-0.257824	-0.4284	0.204976	
-0.277785	-0.415735	0.134138	
-0.331632	-0.374193	0.165357	
-0.193999	-0.271016	0.175767	
-0.120748	-0.291511	0.335128	
0.0203259	-0.249482	0.251542	
-0.0254015	-0.238675	0.394183	
-0.0570812	-0.3559	0.302161	
-0.18203	-0.0488646	0.5	
-0.0882569	-0.0365572	0.407331	
-0.122616	-0.0499791	0.5	
-0.134018	-0.125076	0.416643	
-0.085688	-0.137167	0.16869	
-0.146435	-0.19403	0.261638	
-0.0948276	-0.0943246	0.25421	
-0.136956	-0.0443284	0.188767	
-0.161163	0.309136	0.149427	
-0.1493	0.167608	0.126676	
-0.154067	0.200523	0.255267	
-0.265452	0.263294	0.235043	
-0.117671	-0.10197	0	
-0.085688	-0.137167	0.16869	
-0.202717	-0.0800005	0.134359	
-0.206213	-0.186333	0.106781	
-0.117671	-0.10197	0	
-0.202717	-0.0800005	0.134359	
-0.085688	-0.137167	0.16869	
-0.0801458	-0.0255891	0.118207	
0.135296	0.0693292	0.185912	
0.185118	-0.0448541	0.130581	
0.0395065	-0.000100258	0.126114	
0.126165	0.019123	0.0935695	
0.332733	-0.27561	0.5	
0.314006	-0.186162	0.367048	
0.388345	-0.314941	0.420199	
0.249979	-0.247703	0.407586	
-0.0814439	-0.125985	0.343547	
-0.0254015	-0.238675	0.394183	
-0.117884	-0.234333	0.40948	
-0.0547597	-0.189651	0.263151	
0.0651412	0.200096	0	
-0.0606721	0.230593	0.106057	
0.0985518	0.185902	0.12959	
0.0738057	0.28359	0.108069	
-0.332155	0.186259	0.378016	
-0.38814	0.0365087	0.390101	
-0.268448	0.0761744	0.322026	
-0.268272	0.128138	0.411267	
0.271058	-0.153206	0.5	
0.249439	-0.196279	0.5	
0.186731	-0.150807	0.387359	
0.249979	-0.247703	0.407586	
0.334293	-0.161532	0.5	
0.271058	-0.153206	0.5	
0.249091	-0.0823301	0.40832	
0.377058	-0.167276	0.424233	
0.321349	-0.0500942	0.355813	
0.249091	-0.0823301	0.40832	
0.314006	-0.186162	0.367048	
0.392836	-0.0823347	0.412468	
-0.295688	0.153857	0.172875	
-0.154067	0.200523	0.255267	
-0.1493	0.167608	0.126676	
-0.265452	0.263294	0.235043	
-0.152663	-6.75805e-05	0.5	
-0.122616	-0.0499791	0.5	
-0.18203	-0.0488646	0.5	
-0.0882569	-0.0365572	0.407331	
0.200132	-0.232269	0.163427	
0.193272	-0.26142	0.329316	
0.142415	-0.180509	0.253145	
0.104343	-0.277575	0.292493	
0.268117	-0.201453	0.257301	
0.268239	-0.118327	0.326702	
0.142415	-0.180509	0.253145	
0.134803	-0.19156	0.335814	
-0.323059	-0.0556697	0.363619	
-0.360873	0.0158982	0.275217	
-0.220621	-0.0913842	0.273465	
-0.372506	-0.102825	0.21502	
-0.234283	-0.304583	0.2878	
-0.138366	-0.358353	0.236796	
-0.120748	-0.291511	0.335128	
-0.162242	-0.337279	0.406019	
-0.0814439	-0.125985	0.343547	
-0.117884	-0.234333	0.40948	
-0.146435	-0.19403	0.261638	
-0.0547597	-0.189651	0.263151	
-0.220621	-0.0913842	0.273465	
-0.304937	-0.166182	0.150677	
-0.325718	-0.0135225	0.164468	
-0.202717	-0.0800005	0.134359	
0.334293	-0.161532	0.5	
0.249091	-0.0823301	0.40832	
0.345553	-0.109975	0.5	
0.377058	-0.167276	0.424233	
0.135438	-0.346064	0.384448	
0.153466	-0.356896	0.263852	
0.193272	-0.26142	0.329316	
0.23026	-0.337515	0.419392	
-0.490316	0.0979281	0.24092	
-0.360873	0.0158982	0.275217	
-0.493378	0.0811073	0.146993	
-0.377341	0.0879068	0.111753	
0.314006	-0.186162	0.367048	
0.186731	-0.150807	0.387359	
0.193272	-0.26142	0.329316	
0.249979	-0.247703	0.407586	
0.239078	0.233865	0.176769	
0.268482	0.1106	0.289732	
0.308855	0.242117	0.27439	
0.190566	0.216647	0.261668	
0.0230591	-0.35567	0.355674	
-0.0254015	-0.238675	0.394183	
0.0203259	-0.249482	0.251542	
-0.0570812	-0.3559	0.302161	
-0.249722	-0.227302	0.5	
-0.271058	-0.153206	0.5	
-0.224672	-0.181859	0.5	
-0.194749	-0.171788	0.429088	
-0.389036	0.207425	0	
-0.436811	0.243302	0.0936268	
-0.328307	0.16356	0	
-0.265951	0.256468	0.111233	
-0.304937	-0.166182	0.150677	
-0.202717	-0.0800005	0.134359	
-0.302044	-0.0506462	0	
-0.382808	-0.0894032	0.103515	
-0.332155	0.186259	0.378016	
-0.38814	0.0365087	0.390101	
-0.476132	0.152637	0.402329	
-0.358997	0.136564	0.272723	
1.83697e-17	0.216667	0.5	
0.086989	0.179344	0.400327	
-0.0201888	0.188065	0.366	
-0.0163515	0.266982	0.412579	
0.321349	-0.0500942	0.355813	
0.249091	-0.0823301	0.40832	
0.3	-0.0833333	0.5	
0.353873	0.0061299	0.416416	
0.0248177	-0.313374	0	
-0.0638367	-0.295761	0	
-0.0565919	-0.339726	0.150695	
0.00964811	-0.213747	0.128268	
-0.5	0	0.2	
-0.360873	0.0158982	0.275217	
-0.325718	-0.0135225	0.164468	
-0.377341	0.0879068	0.111753	
-0.085688	-0.137167	0.16869	
-0.237359	-0.176563	0.223722	
-0.146435	-0.19403	0.261638	
-0.136956	-0.0443284	0.188767	
0.193272	-0.26142	0.329316	
0.268239	-0.118327	0.326702	
0.314006	-0.186162	0.367048	
[...]
CELL_DATA 5959
POINT_DATA 23836
SCALARS Pressure float 
LOOKUP_TABLE default
9.76752 9.76752 9.76752 9.76752 9.77036 9.77036 9.77036 9.77036 9.49313 9.49313 9.49313 9.49313 9.209 9.209 9.209 9.209 9.84276 9.84276 9.84276 9.84276 9.4126 9.4126 9.4126 9.4126 9.68836 9.68836 9.68836 9.68836 9.83219 9.83219 9.83219 9.83219 9.88452 9.88452 9.88452 9.88452 9.82959 9.82959 9.82959 9.82959 10.1349 10.1349 10.1349 10.1349 9.64285 9.64285 9.64285 9.64285 9.68175 9.68175 9.68175 9.68175 9.03135 9.03135 9.03135 9.03135 11.3482 11.3482 11.3482 11.3482 9.88481 9.88481 9.88481 9.88481 9.99961 9.99961 9.99961 9.99961 9.59389 9.59389 9.59389 9.59389 9.71905 9.71905 9.71905 9.71905 9.46611 9.46611 9.46611 9.46611 9.00204 9.00204 9.00204 9.00204 9.09556 9.09556 9.09556 9.09556 8.45598 8.45598 8.45598 8.45598 9.74367 9.74367 9.74367 9.74367 9.8539 9.8539 9.8539 9.8539 9.49342 9.49342 9.49342 9.49342 8.14803 8.14803 8.14803 8.14803 9.85611 9.85611 9.85611 9.85611 9.15619 9.15619 9.15619 9.15619 9.4007 9.4007 9.4007 9.4007 9.34536 9.34536 9.34536 9.34536 9.51464 9.51464 9.51464 9.51464 9.72226 9.72226 9.72226 9.72226 9.51353 9.51353 9.51353 9.51353 10.1154 10.1154 10.1154 10.1154 9.87834 9.87834 9.87834 9.87834 9.45518 9.45518 9.45518 9.45518 9.75614 9.75614 9.75614 9.75614 9.50617 9.50617 9.50617 9.50617 9.75433 9.75433 9.75433 9.75433 9.8496 9.8496 9.8496 9.8496 9.47278 9.47278 9.47278 9.47278 9.52449 9.52449 9.52449 9.52449 9.73946 9.73946 9.73946 9.73946 10.3936 10.3936 10.3936 10.3936 9.88048 9.88048 9.88048 9.88048 9.48621 9.48621 9.48621 9.48621 9.66194 9.66194 9.66194 9.66194 9.72319 9.72319 9.72319 9.72319 9.51473 9.51473 9.51473 9.51473 10.7598 10.7598 10.7598 10.7598 9.70581 9.70581 9.70581 9.70581 9.69766 9.69766 9.69766 9.69766 9.84475 9.84475 9.84475 9.84475 9.85445 9.85445 9.85445 9.85445 9.82168 9.82168 9.82168 9.82168 9.46435 9.46435 9.46435 9.46435 9.73317 9.73317 9.73317 9.73317 9.86425 9.86425 9.86425 9.86425 9.40956 9.40956 9.40956 9.40956 6.38807 6.38807 6.38807 6.38807 11.2121 11.2121 11.2121 11.2121 9.244 9.244 9.244 9.244 9.67316 9.67316 9.67316 9.67316 11.2347 11.2347 11.2347 11.2347 9.60514 9.60514 9.60514 9.60514 9.53222 9.53222 9.53222 9.53222 9.55259 9.55259 9.55259 9.55259 9.42425 9.42425 9.42425 9.42425 9.60763 9.60763 9.60763 9.60763 9.72964 9.72964 9.72964 9.72964 10.7268 10.7268 10.7268 10.7268 9.42368 9.42368 9.42368 9.42368 9.68633 9.68633 9.68633 9.68633 9.2348 9.2348 9.2348 9.2348 9.59159 9.59159 9.59159 9.59159 9.2399 9.2399 9.2399 9.2399 3.04916 3.04916 3.04916 3.04916 9.92084 9.92084 9.92084 9.92084 9.82505 9.82505 9.82505 9.82505 9.66765 9.66765 9.66765 9.66765 9.08841 9.08841 9.08841 9.08841 8.15358 8.15358 8.15358 8.15358 9.89131 9.89131 9.89131 9.89131 9.71972 9.71972 9.71972 9.71972 9.71368 9.71368 9.71368 9.71368 9.26228 9.26228 9.26228 9.26228 9.85701 9.85701 9.85701 9.85701 9.68272 9.68272 9.68272 9.68272 9.65833 9.65833 9.65833 9.65833 9.20002 9.20002 9.20002 9.20002 9.90416 9.90416 9.90416 9.90416 9.74569 9.74569 9.74569 9.74569 10.9248 10.9248 10.9248 10.9248 9.47326 9.47326 9.47326 9.47326 11.7741 11.7741 11.7741 11.7741 9.80537 9.80537 9.80537 9.80537 9.79932 9.79932 9.79932 9.79932 9.82388 9.82388 9.82388 9.82388 10.4101 10.4101 10.4101 10.4101 9.58625 9.58625 9.58625 9.58625 9.64553 9.64553 9.64553 9.64553 7.71668 7.71668 7.71668 7.71668 9.87324 9.87324 9.87324 9.87324 9.67937 9.67937 9.67937 9.67937 9.67774 9.67774 9.67774 9.67774 9.72685 9.72685 9.72685 9.72685 10.9288 10.9288 10.9288 10.9288 9.42232 9.42232 9.42232 9.42232 9.67549 9.67549 9.67549 9.67549 9.69929 9.69929 9.69929 9.69929 11.0237 11.0237 11.0237 11.0237 9.87525 9.87525 9.87525 9.87525 9.91522 9.91522 9.91522 9.91522 9.44245 9.44245 9.44245 9.44245 9.67582 9.67582 9.67582 9.67582 6.64751 6.64751 6.64751 6.64751 4.09328 4.09328 4.09328 4.09328 9.64376 9.64376 9.64376 9.64376 10.2048 10.2048 10.2048 10.2048 9.67614 9.67614 9.67614 9.67614 9.78588 9.78588 9.78588 9.78588 3.50529 3.50529 3.50529 3.50529 9.66505 9.66505 9.66505 9.66505 9.74598 9.74598 9.74598 9.74598 9.61476 9.61476 9.61476 9.61476 9.79276 9.79276 9.79276 9.79276 6.98315 6.98315 6.98315 6.98315 9.54935 9.54935 9.54935 9.54935 9.76976 9.76976 9.76976 9.76976 9.65578 9.65578 9.65578 9.65578 9.61737 9.61737 9.61737 9.61737 9.36832 9.36832 9.36832 9.36832 9.60134 9.60134 9.60134 9.60134 9.7688 9.7688 9.7688 9.7688 9.91645 9.91645 9.91645 9.91645 10.6667 10.6667 10.6667 10.6667 9.70251 9.70251 9.70251 9.70251 5.91291 5.91291 5.91291 5.91291 9.92649 9.92649 9.92649 9.92649 11.5474 11.5474 11.5474 11.5474 9.57453 9.57453 9.57453 9.57453 9.56433 9.56433 9.56433 9.56433 9.62043 9.62043 9.62043 9.62043 3.63753 3.63753 3.63753 3.63753 10.9899 10.9899 10.9899 10.9899 9.63632 9.63632 9.63632 9.63632 11.4482 11.4482 11.4482 11.4482 9.70483 9.70483 9.70483 9.70483 9.82333 9.82333 9.82333 9.82333 9.52241 9.52241 9.52241 9.52241 9.72488 9.72488 9.72488 9.72488 9.72644 9.72644 9.72644 9.72644 9.84273 9.84273 9.84273 9.84273 9.74444 9.74444 9.74444 9.74444 9.84906 9.84906 9.84906 9.84906 9.63194 9.63194 9.63194 9.63194 11.2547 11.2547 11.2547 11.2547 9.65298 9.65298 9.65298 9.65298 9.53819 9.53819 9.53819 9.53819 9.67382 9.67382 9.67382 9.67382 9.74834 9.74834 9.74834 9.74834 8.87942 8.87942 8.87942 8.87942 9.72327 9.72327 9.72327 9.72327 6.70638 6.70638 6.70638 6.70638 9.62477 9.62477 9.62477 9.62477 9.62868 9.62868 9.62868 9.62868 9.72789 9.72789 9.72789 9.72789 10.2578 10.2578 10.2578 10.2578 9.75841 9.75841 9.75841 9.75841 12.0214 12.0214 12.0214 12.0214 10.1561 10.1561 10.1561 10.1561 9.66797 9.66797 9.66797 9.66797 9.71879 9.71879 9.71879 9.71879 9.71766 9.71766 9.71766 9.71766 10.3177 10.3177 10.3177 10.3177 9.6714 9.6714 9.6714 9.6714 6.79394 6.79394 6.79394 6.79394 9.84375 9.84375 9.84375 9.84375 12.3839 12.3839 12.3839 12.3839 10.047 10.047 10.047 10.047 9.04119 9.04119 9.04119 9.04119 10.7666 10.7666 10.7666 10.7666 9.65579 9.65579 9.65579 9.65579 9.82368 9.82368 9.82368 9.82368 9.72315 9.72315 9.72315 9.72315 9.6074 9.6074 9.6074 9.6074 9.68815 9.68815 9.68815 9.68815 9.8722 9.8722 9.8722 9.8722 9.87173 9.87173 9.87173 9.87173 9.60405 9.60405 9.60405 9.60405 9.90671 9.90671 9.90671 9.90671 9.79522 9.79522 9.79522 9.79522 9.35548 9.35548 9.35548 9.35548 9.73098 9.73098 9.73098 9.73098 9.34702 9.34702 9.34702 9.34702 10.3583 10.3583 10.3583 10.3583 9.74936 9.74936 9.74936 9.74936 9.61302 9.61302 9.61302 9.61302 9.4545 9.4545 9.4545 9.4545 11.8345 11.8345 11.8345 11.8345 11.1845 11.1845 11.1845 11.1845 9.63074 9.63074 9.63074 9.63074 9.65265 9.65265 9.65265 9.65265 9.57525 9.57525 9.57525 9.57525 9.73468 9.73468 9.73468 9.73468 8.73974 8.73974 8.73974 8.73974 9.89183 9.89183 9.89183 9.89183 9.68521 9.68521 9.68521 9.68521 9.59282 9.59282 9.59282 9.59282 9.65835 9.65835 9.65835 9.65835 9.59512 9.59512 9.59512 9.59512 9.55525 9.55525 9.55525 9.55525 9.68362 9.68362 9.68362 9.68362 9.89397 9.89397 9.89397 9.89397 9.9048 9.9048 9.9048 9.9048 9.91391 9.91391 9.91391 9.91391 9.63063 9.63063 9.63063 9.63063 9.65936 9.65936 9.65936 9.65936 9.86545 9.86545 9.86545 9.86545 9.7783 9.7783 9.7783 9.7783 9.58043 9.58043 9.58043 9.58043 9.61605 9.61605 9.61605 9.61605 9.85454 9.85454 9.85454 9.85454 9.60449 9.60449 9.60449 9.60449 9.71852 9.71852 9.71852 9.71852 9.65205 9.65205 9.65205 9.65205 9.55153 9.55153 9.55153 9.55153 8.53771 8.53771 8.53771 8.53771 5.24614 5.24614 5.24614 5.24614 11.778 11.778 11.778 11.778 9.65212 9.65212 9.65212 9.65212 9.47524 9.47524 9.47524 9.47524 9.45261 9.45261 9.45261 9.45261 9.83638 9.83638 9.83638 9.83638 9.92606 9.92606 9.92606 9.92606 9.91091 9.91091 9.91091 9.91091 9.924 9.924 9.924 9.924 9.92099 9.92099 9.92099 9.92099 9.7323 9.7323 9.7323 9.7323 9.67222 9.67222 9.67222 9.67222 9.67431 9.67431 9.67431 9.67431 9.73803 9.73803 9.73803 9.73803 9.70922 9.70922 9.70922 9.70922 9.66649 9.66649 9.66649 9.66649 9.59447 9.59447 9.59447 9.59447 9.69543 9.69543 9.69543 9.69543 9.909 9.909 9.909 9.909 9.64154 9.64154 9.64154 9.64154 9.57012 9.57012 9.57012 9.57012 9.54337 9.54337 9.54337 9.54337 9.4469 9.4469 9.4469 9.4469 11.8294 11.8294 11.8294 11.8294 9.83759 9.83759 9.83759 9.83759 9.65939 9.65939 9.65939 9.65939 9.74438 9.74438 9.74438 9.74438 9.74511 9.74511 9.74511 9.74511 9.6099 9.6099 9.6099 9.6099 10.1574 10.1574 10.1574 10.1574 9.51869 9.51869 9.51869 9.51869 9.61111 9.61111 9.61111 9.61111 9.64253 9.64253 9.64253 9.64253 10.1109 10.1109 10.1109 10.1109 9.77263 9.77263 9.77263 9.77263 9.58505 9.58505 9.58505 9.58505 9.83563 9.83563 9.83563 9.83563 12.5503 12.5503 12.5503 12.5503 9.59003 9.59003 9.59003 9.59003 9.72291 9.72291 9.72291 9.72291 9.6061 9.6061 9.6061 9.6061 10.1608 10.1608 10.1608 10.1608 9.79349 9.79349 9.79349 9.79349 8.44971 8.44971 8.44971 8.44971 12.3997 12.3997 12.3997 12.3997 10.5242 10.5242 10.5242 10.5242 9.68797 9.68797 9.68797 9.68797 9.70883 9.70883 9.70883 9.70883 4.83492 4.83492 4.83492 4.83492 9.83659 9.83659 9.83659 9.83659 11.1819 11.1819 11.1819 11.1819 11.9373 11.9373 11.9373 11.9373 9.55853 9.55853 9.55853 9.55853 9.57652 9.57652 9.57652 9.57652 5.28629 5.28629 5.28629 5.28629 9.70246 9.70246 9.70246 9.70246 9.71391 9.71391 9.71391 9.71391 9.8548 9.8548 9.8548 9.8548 9.80717 9.80717 9.80717 9.80717 9.80133 9.80133 9.80133 9.80133 9.84621 9.84621 9.84621 9.84621 9.88528 9.88528 9.88528 9.88528 9.8704 9.8704 9.8704 9.8704 9.70304 9.70304 9.70304 9.70304 9.76861 9.76861 9.76861 9.76861 9.7729 9.7729 9.7729 9.7729 9.777 9.777 9.777 9.777 9.79036 9.79036 9.79036 9.79036 9.69255 9.69255 9.69255 9.69255 9.82541 9.82541 9.82541 9.82541 9.34063 9.34063 9.34063 9.34063 9.83049 9.83049 9.83049 9.83049 10.1848 10.1848 10.1848 10.1848 9.86552 9.86552 9.86552 9.86552 9.90726 9.90726 9.90726 9.90726 9.65129 9.65129 9.65129 9.65129 3.3343 3.3343 3.3343 3.3343 8.89836 8.89836 8.89836 8.89836 9.60525 9.60525 9.60525 9.60525 9.40184 9.40184 9.40184 9.40184 9.49382 9.49382 9.49382 9.49382 9.59791 9.59791 9.59791 9.59791 9.80709 9.80709 9.80709 9.80709 9.76395 9.76395 9.76395 9.76395 11.1789 11.1789 11.1789 11.1789 9.73451 9.73451 9.73451 9.73451 9.40232 9.40232 9.40232 9.40232 9.83235 9.83235 9.83235 9.83235 9.52919 9.52919 9.52919 9.52919 9.90813 9.90813 9.90813 9.90813 11.1876 11.1876 11.1876 11.1876 3.33969 3.33969 3.33969 3.33969 9.5607 9.5607 9.5607 9.5607 9.68406 9.68406 9.68406 9.68406 9.33725 9.33725 9.33725 9.33725 9.32997 9.32997 9.32997 9.32997 9.84512 9.84512 9.84512 9.84512 9.65057 9.65057 9.65057 9.65057 9.57121 9.57121 9.57121 9.57121 7.95418 7.95418 7.95418 7.95418 9.32737 9.32737 9.32737 9.32737 9.76145 9.76145 9.76145 9.76145 9.48992 9.48992 9.48992 9.48992 9.85637 9.85637 9.85637 9.85637 9.63922 9.63922 9.63922 9.63922 7.69929 7.69929 7.69929 7.69929 10.5608 10.5608 10.5608 10.5608 11.1239 11.1239 11.1239 11.1239 9.46706 9.46706 9.46706 9.46706 9.5588 9.5588 9.5588 9.5588 9.66183 9.66183 9.66183 9.66183 9.59703 9.59703 9.59703 9.59703 9.16996 9.16996 9.16996 9.16996 9.81729 9.81729 9.81729 9.81729 9.6815 9.6815 9.6815 9.6815 9.73595 9.73595 9.73595 9.73595 9.83204 9.83204 9.83204 9.83204 6.24747 6.24747 6.24747 6.24747 9.96944 9.96944 9.96944 9.96944 10.3923 10.3923 10.3923 10.3923 9.7879 9.7879 9.7879 9.7879 9.60442 9.60442 9.60442 9.60442 9.40055 9.40055 9.40055 9.40055 9.71938 9.71938 9.71938 9.71938 9.60956 9.60956 9.60956 9.60956 9.91715 9.91715 9.91715 9.91715 6.26768 6.26768 6.26768 6.26768 11.5493 11.5493 11.5493 11.5493 9.60784 9.60784 9.60784 9.60784 9.96907 9.96907 9.96907 9.96907 10.0663 10.0663 10.0663 10.0663 9.54869 9.54869 9.54869 9.54869 9.83852 9.83852 9.83852 9.83852 9.68515 9.68515 9.68515 9.68515 9.7471 9.7471 9.7471 9.7471 9.87146 9.87146 9.87146 9.87146 9.61 9.61 9.61 9.61 9.74101 9.74101 9.74101 9.74101 9.37332 9.37332 9.37332 9.37332 9.70385 9.70385 9.70385 9.70385 9.65731 9.65731 9.65731 9.65731 9.69997 9.69997 9.69997 9.69997 9.6678 9.6678 9.6678 9.6678 10.1746 10.1746 10.1746 10.1746 9.40426 9.40426 9.40426 9.40426 2.72711 2.72711 2.72711 2.72711 9.24744 9.24744 9.24744 9.24744 9.52967 9.52967 9.52967 9.52967 9.61054 9.61054 9.61054 9.61054 9.74847 9.74847 9.74847 9.74847 2.82605 2.82605 2.82605 2.82605 6.93919 6.93919 6.93919 6.93919 9.65452 9.65452 9.65452 9.65452 9.20425 9.20425 9.20425 9.20425 9.53103 9.53103 9.53103 9.53103 9.70687 9.70687 9.70687 9.70687 9.06285 9.06285 9.06285 9.06285 9.54278 9.54278 9.54278 9.54278 9.65375 9.65375 9.65375 9.65375 9.58935 9.58935 9.58935 9.58935 9.62501 9.62501 9.62501 9.62501 9.72641 9.72641 9.72641 9.72641 9.65962 9.65962 9.65962 9.65962 9.68394 9.68394 9.68394 9.68394 9.79769 9.79769 9.79769 9.79769 11.6405 11.6405 11.6405 11.6405 10.3846 10.3846 10.3846 10.3846 9.79559 9.79559 9.79559 9.79559 9.70769 9.70769 9.70769 9.70769 8.08322 8.08322 8.08322 8.08322 9.62066 9.62066 9.62066 9.62066 9.75574 9.75574 9.75574 9.75574 10.0669 10.0669 10.0669 10.0669 9.50378 9.50378 9.50378 9.50378 11.0453 11.0453 11.0453 11.0453 8.2015 8.2015 8.2015 8.2015 9.83868 9.83868 9.83868 9.83868 9.66885 9.66885 9.66885 9.66885 12.6725 12.6725 12.6725 12.6725 9.79763 9.79763 9.79763 9.79763 9.96491 9.96491 9.96491 9.96491 9.56188 9.56188 9.56188 9.56188 9.61798 9.61798 9.61798 9.61798 9.91672 9.91672 9.91672 9.91672 9.74856 9.74856 9.74856 9.74856 9.73271 9.73271 9.73271 9.73271 9.45743 9.45743 9.45743 9.45743 9.6008 9.6008 9.6008 9.6008 9.89128 9.89128 9.89128 9.89128 9.92342 9.92342 9.92342 9.92342 9.88662 9.88662 9.88662 9.88662 10.7908 10.7908 10.7908 10.7908 9.53331 9.53331 9.53331 9.53331 9.21161 9.21161 9.21161 9.21161 9.68591 9.68591 9.68591 9.68591 9.86622 9.86622 9.86622 9.86622 9.68968 9.68968 9.68968 9.68968 9.44007 9.44007 9.44007 9.44007 9.70577 9.70577 9.70577 9.70577 9.54451 9.54451 9.54451 9.54451 9.73849 9.73849 9.73849 9.73849 9.69433 9.69433 9.69433 9.69433 9.53156 9.53156 9.53156 9.53156 9.67196 9.67196 9.67196 9.67196 9.86654 9.86654 9.86654 9.86654 9.87544 9.87544 9.87544 9.87544 9.86164 9.86164 9.86164 9.86164 9.80399 9.80399 9.80399 9.80399 9.60531 9.60531 9.60531 9.60531 9.70059 9.70059 9.70059 9.70059 9.86123 9.86123 9.86123 9.86123 9.51654 9.51654 9.51654 9.51654 9.45587 9.45587 9.45587 9.45587 9.49013 9.49013 9.49013 9.49013 9.637 9.637 9.637 9.637 12.7449 12.7449 12.7449 12.7449 9.70502 9.70502 9.70502 9.70502 9.4451 9.4451 9.4451 9.4451 8.86921 8.86921 8.86921 8.86921 8.9512 8.9512 8.9512 8.9512 7.44431 7.44431 7.44431 7.44431 9.56276 9.56276 9.56276 9.56276 10.1479 10.1479 10.1479 10.1479 9.81628 9.81628 9.81628 9.81628 9.69096 9.69096 9.69096 9.69096 9.9126 9.9126 9.9126 9.9126 9.79472 9.79472 9.79472 9.79472 11.2956 11.2956 11.2956 11.2956 9.73373 9.73373 9.73373 9.73373 9.96011 9.96011 9.96011 9.96011 9.59914 9.59914 9.59914 9.59914 13.0153 13.0153 13.0153 13.0153 9.61894 9.61894 9.61894 9.61894 9.78954 9.78954 9.78954 9.78954 10.7018 10.7018 10.7018 10.7018 9.85523 9.85523 9.85523 9.85523 10.0134 10.0134 10.0134 10.0134 10.878 10.878 10.878 10.878 9.50467 9.50467 9.50467 9.50467 9.70009 9.70009 9.70009 9.70009 9.66282 9.66282 9.66282 9.66282 9.81856 9.81856 9.81856 9.81856 9.58934 9.58934 9.58934 9.58934 9.64097 9.64097 9.64097 9.64097 4.83804 4.83804 4.83804 4.83804 9.58872 9.58872 9.58872 9.58872 9.85686 9.85686 9.85686 9.85686 9.8463 9.8463 9.8463 9.8463 9.96579 9.96579 9.96579 9.96579 9.97388 9.97388 9.97388 9.97388 9.42212 9.42212 9.42212 9.42212 9.884 9.884 9.884 9.884 9.60964 9.60964 9.60964 9.60964 9.85944 9.85944 9.85944 9.85944 6.90596 6.90596 6.90596 6.90596 9.59791 9.59791 9.59791 9.59791 10.1983 10.1983 10.1983 10.1983 9.91246 9.91246 9.91246 9.91246 9.20557 9.20557 9.20557 9.20557 9.71175 9.71175 9.71175 9.71175 9.73551 9.73551 9.73551 9.73551 9.2364 9.2364 9.2364 9.2364 9.75838 9.75838 9.75838 9.75838 9.76417 9.76417 9.76417 9.76417 9.78673 9.78673 9.78673 9.78673 9.66229 9.66229 9.66229 9.66229 9.71765 9.71765 9.71765 9.71765 9.7319 9.7319 9.7319 9.7319 11.0853 11.0853 11.0853 11.0853 9.87106 9.87106 9.87106 9.87106 9.86865 9.86865 9.86865 9.86865 9.68563 9.68563 9.68563 9.68563 9.71326 9.71326 9.71326 9.71326 9.51497 9.51497 9.51497 9.51497 9.91854 9.91854 9.91854 9.91854 9.82278 9.82278 9.82278 9.82278 9.714 9.714 9.714 9.714 9.54689 9.54689 9.54689 9.54689 9.71751 9.71751 9.71751 9.71751 9.83929 9.83929 9.83929 9.83929 9.90595 9.90595 9.90595 9.90595 9.74649 9.74649 9.74649 9.74649 9.7456 9.7456 9.7456 9.7456 9.67166 9.67166 9.67166 9.67166 9.83703 9.83703 9.83703 9.83703 10.7938 10.7938 10.7938 10.7938 9.6024 9.6024 9.6024 9.6024 9.92914 9.92914 9.92914 9.92914 9.6387 9.6387 9.6387 9.6387 9.9693 9.9693 9.9693 9.9693 9.72419 9.72419 9.72419 9.72419 9.92432 9.92432 9.92432 9.92432 9.70366 9.70366 9.70366 9.70366 9.9045 9.9045 9.9045 9.9045 9.32624 9.32624 9.32624 9.32624 11.7941 11.7941 11.7941 11.7941 9.91344 9.91344 9.91344 9.91344 4.63568 4.63568 4.63568 4.63568 9.96931 9.96931 9.96931 9.96931 9.79087 9.79087 9.79087 9.79087 9.82374 9.82374 9.82374 9.82374 9.89429 9.89429 9.89429 9.89429 9.68354 9.68354 9.68354 9.68354 9.7477 9.7477 9.7477 9.7477 4.15587 4.15587 4.15587 4.15587 9.66997 9.66997 9.66997 9.66997 2.97905 2.97905 2.97905 2.97905 9.96664 9.96664 9.96664 9.96664 9.72214 9.72214 9.72214 9.72214 9.96393 9.96393 9.96393 9.96393 9.53357 9.53357 9.53357 9.53357 9.53639 9.53639 9.53639 9.53639 9.47719 9.47719 9.47719 9.47719 9.80468 9.80468 9.80468 9.80468 9.91714 9.91714 9.91714 9.91714 9.85113 9.85113 9.85113 9.85113 9.90954 9.90954 9.90954 9.90954 10.5618 10.5618 10.5618 10.5618 9.62732 9.62732 9.62732 9.62732 9.96373 9.96373 9.96373 9.96373 13.4628 13.4628 13.4628 13.4628 10.9774 10.9774 10.9774 10.9774 9.11388 9.11388 9.11388 9.11388 9.89723 9.89723 9.89723 9.89723 10.4545 10.4545 10.4545 10.4545 9.64501 9.64501 9.64501 9.64501 9.54842 9.54842 9.54842 9.54842 9.86333 9.86333 9.86333 9.86333 11.2542 11.2542 11.2542 11.2542 9.74195 9.74195 9.74195 9.74195 9.64186 9.64186 9.64186 9.64186 3.39739 3.39739 3.39739 3.39739 12.4286 12.4286 12.4286 12.4286 9.84754 9.84754 9.84754 9.84754 8.54431 8.54431 8.54431 8.54431 9.66455 9.66455 9.66455 9.66455 9.37413 9.37413 9.37413 9.37413 9.62861 9.62861 9.62861 9.62861 9.74139 9.74139 9.74139 9.74139 9.72207 9.72207 9.72207 9.72207 9.83857 9.83857 9.83857 9.83857 9.63641 9.63641 9.63641 9.63641 4.25598 4.25598 4.25598 4.25598 10.1491 10.1491 10.1491 10.1491 9.78374 9.78374 9.78374 9.78374 9.71811 9.71811 9.71811 9.71811 9.33253 9.33253 9.33253 9.33253 9.55826 9.55826 9.55826 9.55826 9.67467 9.67467 9.67467 9.67467 9.90649 9.90649 9.90649 9.90649 9.34843 9.34843 9.34843 9.34843 9.15344 9.15344 9.15344 9.15344 9.60148 9.60148 9.60148 9.60148 9.7284 9.7284 9.7284 9.7284 11.9038 11.9038 11.9038 11.9038 8.02933 8.02933 8.02933 8.02933 9.86155 9.86155 9.86155 9.86155 10.1599 10.1599 10.1599 10.1599 9.38831 9.38831 9.38831 9.38831 9.50338 9.50338 9.50338 9.50338 9.71316 9.71316 9.71316 9.71316 9.74331 9.74331 9.74331 9.74331 9.73137 9.73137 9.73137 9.73137 9.49339 9.49339 9.49339 9.49339 11.7883 11.7883 11.7883 11.7883 10.8661 10.8661 10.8661 10.8661 9.4629 9.4629 9.4629 9.4629 9.89732 9.89732 9.89732 9.89732 9.99365 9.99365 9.99365 9.99365 9.34365 9.34365 9.34365 9.34365 9.78731 9.78731 9.78731 9.78731 9.61373 9.61373 9.61373 9.61373 9.62606 9.62606 9.62606 9.62606 9.6731 9.6731 9.6731 9.6731 10.9268 10.9268 10.9268 10.9268 6.178 6.178 6.178 6.178 9.97014 9.97014 9.97014 9.97014 9.61236 9.61236 9.61236 9.61236 9.37307 9.37307 9.37307 9.37307 9.22178 9.22178 9.22178 9.22178 9.41651 9.41651 9.41651 9.41651 9.84679 9.84679 9.84679 9.84679 8.26423 8.26423 8.26423 8.26423 9.50141 9.50141 9.50141 9.50141 9.63566 9.63566 9.63566 9.63566 5.43489 5.43489 5.43489 5.43489 9.71131 9.71131 9.71131 9.71131 9.31738 9.31738 9.31738 9.31738 9.57802 9.57802 9.57802 9.57802 10.5672 10.5672 10.5672 10.5672 13.2014 13.2014 13.2014 13.2014 9.77315 9.77315 9.77315 9.77315 10.5639 10.5639 10.5639 10.5639 10.0487 10.0487 10.0487 10.0487 9.71 9.71 9.71 9.71 10.9168 10.9168 10.9168 10.9168 13.0078 13.0078 13.0078 13.0078 9.56653 9.56653 9.56653 9.56653 9.92086 9.92086 9.92086 9.92086 6.35678 6.35678 6.35678 6.35678 9.69231 9.69231 9.69231 9.69231 9.79455 9.79455 9.79455 9.79455 9.75519 9.75519