# vtk DataFile Version 3.0
vtk output
ASCII
DATASET UNSTRUCTURED_GRID
POINTS 1000 float
0	0	1	
0	0.2	1	
0.2	0.2	1	
0.2	0	1	
0	0	0.8	
0	0.2	0.8	
0.2	0.2	0.8	
0.2	0	0.8	
0	0	0.8	
0	0.2	0.8	
0.2	0.2	0.8	
0.2	0	0.8	
0	0	0.6	
0	0.2	0.6	
0.2	0.2	0.6	
0.2	0	0.6	
0	0	0.6	
0	0.2	0.6	
0.2	0.2	0.6	
0.2	0	0.6	
0	0	0.4	
0	0.2	0.4	
0.2	0.2	0.4	
0.2	0	0.4	
0	0	0.4	
0	0.2	0.4	
0.2	0.2	0.4	
0.2	0	0.4	
0	0	0.2	
0	0.2	0.2	
0.2	0.2	0.2	
0.2	0	0.2	
0	0	0.2	
0	0.2	0.2	
0.2	0.2	0.2	
0.2	0	0.2	
0	0	0	
0	0.2	0	
0.2	0.2	0	
0.2	0	0	
0.2	0	1	
0.2	0.2	1	
0.4	0.2	1	
0.4	0	1	
0.2	0	0.8	
0.2	0.2	0.8	
0.4	0.2	0.8	
0.4	0	0.8	
0.2	0	0.8	
0.2	0.2	0.8	
0.4	0.2	0.8	
0.4	0	0.8	
0.2	0	0.6	
0.2	0.2	0.6	
0.4	0.2	0.6	
0.4	0	0.6	
0.2	0	0.6	
0.2	0.2	0.6	
0.4	0.2	0.6	
0.4	0	0.6	
0.2	0	0.4	
0.2	0.2	0.4	
0.4	0.2	0.4	
0.4	0	0.4	
0.2	0	0.4	
0.2	0.2	0.4	
0.4	0.2	0.4	
0.4	0	0.4	
0.2	0	0.2	
0.2	0.2	0.2	
0.4	0.2	0.2	
0.4	0	0.2	
0.2	0	0.2	
0.2	0.2	0.2	
0.4	0.2	0.2	
0.4	0	0.2	
0.2	0	0	
0.2	0.2	0	
0.4	0.2	0	
0.4	0	0	
0.4	0	1	
0.4	0.2	1	
0.6	0.2	1	
0.6	0	1	
0.4	0	0.8	
0.4	0.2	0.8	
0.6	0.2	0.8	
0.6	0	0.8	
0.4	0	0.8	
0.4	0.2	0.8	
0.6	0.2	0.8	
0.6	0	0.8	
0.4	0	0.6	
0.4	0.2	0.6	
0.6	0.2	0.6	
0.6	0	0.6	
0.4	0	0.6	
0.4	0.2	0.6	
0.6	0.2	0.6	
0.6	0	0.6	
0.4	0	0.4	
0.4	0.2	0.4	
0.6	0.2	0.4	
0.6	0	0.4	
0.4	0	0.4	
0.4	0.2	0.4	
0.6	0.2	0.4	
0.6	0	0.4	
0.4	0	0.2	
0.4	0.2	0.2	
0.6	0.2	0.2	
0.6	0	0.2	
0.4	0	0.2	
0.4	0.2	0.2	
0.6	0.2	0.2	
0.6	0	0.2	
0.4	0	0	
0.4	0.2	0	
0.6	0.2	0	
0.6	0	0	
0.6	0	1	
0.6	0.2	1	
0.8	0.2	1	
0.8	0	1	
0.6	0	0.8	
0.6	0.2	0.8	
0.8	0.2	0.8	
0.8	0	0.8	
0.6	0	0.8	
0.6	0.2	0.8	
0.8	0.2	0.8	
0.8	0	0.8	
0.6	0	0.6	
0.6	0.2	0.6	
0.8	0.2	0.6	
0.8	0	0.6	
0.6	0	0.6	
0.6	0.2	0.6	
0.8	0.2	0.6	
0.8	0	0.6	
0.6	0	0.4	
0.6	0.2	0.4	
0.8	0.2	0.4	
0.8	0	0.4	
0.6	0	0.4	
0.6	0.2	0.4	
0.8	0.2	0.4	
0.8	0	0.4	
0.6	0	0.2	
0.6	0.2	0.2	
0.8	0.2	0.2	
0.8	0	0.2	
0.6	0	0.2	
0.6	0.2	0.2	
0.8	0.2	0.2	
0.8	0	0.2	
0.6	0	0	
0.6	0.2	0	
0.8	0.2	0	
0.8	0	0	
0.8	0	1	
0.8	0.2	1	
1	0.2	1	
1	0	1	
0.8	0	0.8	
0.8	0.2	0.8	
1	0.2	0.8	
1	0	0.8	
0.8	0	0.8	
0.8	0.2	0.8	
1	0.2	0.8	
1	0	0.8	
0.8	0	0.6	
0.8	0.2	0.6	
1	0.2	0.6	
1	0	0.6	
0.8	0	0.6	
0.8	0.2	0.6	
1	0.2	0.6	
1	0	0.6	
0.8	0	0.4	
0.8	0.2	0.4	
1	0.2	0.4	
1	0	0.4	
0.8	0	0.4	
0.8	0.2	0.4	
1	0.2	0.4	
1	0	0.4	
0.8	0	0.2	
0.8	0.2	0.2	
1	0.2	0.2	
1	0	0.2	
0.8	0	0.2	
0.8	0.2	0.2	
1	0.2	0.2	
1	0	0.2	
0.8	0	0	
0.8	0.2	0	
1	0.2	0	
1	0	0	
0	0.2	1	
0	0.4	1	
0.2	0.4	1	
0.2	0.2	1	
0	0.2	0.8	
0	0.4	0.8	
0.2	0.4	0.8	
0.2	0.2	0.8	
0	0.2	0.8	
0	0.4	0.8	
0.2	0.4	0.8	
0.2	0.2	0.8	
0	0.2	0.6	
0	0.4	0.6	
0.2	0.4	0.6	
0.2	0.2	0.6	
0	0.2	0.6	
0	0.4	0.6	
0.2	0.4	0.6	
0.2	0.2	0.6	
0	0.2	0.4	
0	0.4	0.4	
0.2	0.4	0.4	
0.2	0.2	0.4	
0	0.2	0.4	
0	0.4	0.4	
0.2	0.4	0.4	
0.2	0.2	0.4	
0	0.2	0.2	
0	0.4	0.2	
0.2	0.4	0.2	
0.2	0.2	0.2	
0	0.2	0.2	
0	0.4	0.2	
0.2	0.4	0.2	
0.2	0.2	0.2	
0	0.2	0	
0	0.4	0	
0.2	0.4	0	
0.2	0.2	0	
0.2	0.2	1	
0.2	0.4	1	
0.4	0.4	1	
0.4	0.2	1	
0.2	0.2	0.8	
0.2	0.4	0.8	
0.4	0.4	0.8	
0.4	0.2	0.8	
0.2	0.2	0.8	
0.2	0.4	0.8	
0.4	0.4	0.8	
0.4	0.2	0.8	
0.2	0.2	0.6	
0.2	0.4	0.6	
0.4	0.4	0.6	
0.4	0.2	0.6	
0.2	0.2	0.6	
0.2	0.4	0.6	
0.4	0.4	0.6	
0.4	0.2	0.6	
0.2	0.2	0.4	
0.2	0.4	0.4	
0.4	0.4	0.4	
0.4	0.2	0.4	
0.2	0.2	0.4	
0.2	0.4	0.4	
0.4	0.4	0.4	
0.4	0.2	0.4	
0.2	0.2	0.2	
0.2	0.4	0.2	
0.4	0.4	0.2	
0.4	0.2	0.2	
0.2	0.2	0.2	
0.2	0.4	0.2	
0.4	0.4	0.2	
0.4	0.2	0.2	
0.2	0.2	0	
0.2	0.4	0	
0.4	0.4	0	
0.4	0.2	0	
0.4	0.2	1	
0.4	0.4	1	
0.6	0.4	1	
0.6	0.2	1	
0.4	0.2	0.8	
0.4	0.4	0.8	
0.6	0.4	0.8	
0.6	0.2	0.8	
0.4	0.2	0.8	
0.4	0.4	0.8	
0.6	0.4	0.8	
0.6	0.2	0.8	
0.4	0.2	0.6	
0.4	0.4	0.6	
0.6	0.4	0.6	
0.6	0.2	0.6	
0.4	0.2	0.6	
0.4	0.4	0.6	
0.6	0.4	0.6	
0.6	0.2	0.6	
0.4	0.2	0.4	
0.4	0.4	0.4	
0.6	0.4	0.4	
0.6	0.2	0.4	
0.4	0.2	0.4	
0.4	0.4	0.4	
0.6	0.4	0.4	
0.6	0.2	0.4	
0.4	0.2	0.2	
0.4	0.4	0.2	
0.6	0.4	0.2	
0.6	0.2	0.2	
0.4	0.2	0.2	
0.4	0.4	0.2	
0.6	0.4	0.2	
0.6	0.2	0.2	
0.4	0.2	0	
0.4	0.4	0	
0.6	0.4	0	
0.6	0.2	0	
0.6	0.2	1	
0.6	0.4	1	
0.8	0.4	1	
0.8	0.2	1	
0.6	0.2	0.8	
0.6	0.4	0.8	
0.8	0.4	0.8	
0.8	0.2	0.8	
0.6	0.2	0.8	
0.6	0.4	0.8	
0.8	0.4	0.8	
0.8	0.2	0.8	
0.6	0.2	0.6	
0.6	0.4	0.6	
0.8	0.4	0.6	
0.8	0.2	0.6	
0.6	0.2	0.6	
0.6	0.4	0.6	
0.8	0.4	0.6	
0.8	0.2	0.6	
0.6	0.2	0.4	
0.6	0.4	0.4	
0.8	0.4	0.4	
0.8	0.2	0.4	
0.6	0.2	0.4	
0.6	0.4	0.4	
0.8	0.4	0.4	
0.8	0.2	0.4	
0.6	0.2	0.2	
0.6	0.4	0.2	
0.8	0.4	0.2	
0.8	0.2	0.2	
0.6	0.2	0.2	
0.6	0.4	0.2	
0.8	0.4	0.2	
0.8	0.2	0.2	
0.6	0.2	0	
0.6	0.4	0	
0.8	0.4	0	
0.8	0.2	0	
0.8	0.2	1	
0.8	0.4	1	
1	0.4	1	
1	0.2	1	
0.8	0.2	0.8	
0.8	0.4	0.8	
1	0.4	0.8	
1	0.2	0.8	
0.8	0.2	0.8	
0.8	0.4	0.8	
1	0.4	0.8	
1	0.2	0.8	
0.8	0.2	0.6	
0.8	0.4	0.6	
1	0.4	0.6	
1	0.2	0.6	
0.8	0.2	0.6	
0.8	0.4	0.6	
1	0.4	0.6	
1	0.2	0.6	
0.8	0.2	0.4	
0.8	0.4	0.4	
1	0.4	0.4	
1	0.2	0.4	
0.8	0.2	0.4	
0.8	0.4	0.4	
1	0.4	0.4	
1	0.2	0.4	
0.8	0.2	0.2	
0.8	0.4	0.2	
1	0.4	0.2	
1	0.2	0.2	
0.8	0.2	0.2	
0.8	0.4	0.2	
1	0.4	0.2	
1	0.2	0.2	
0.8	0.2	0	
0.8	0.4	0	
1	0.4	0	
1	0.2	0	
0	0.4	1	
0	0.6	1	
0.2	0.6	1	
0.2	0.4	1	
0	0.4	0.8	
0	0.6	0.8	
0.2	0.6	0.8	
0.2	0.4	0.8	
0	0.4	0.8	
0	0.6	0.8	
0.2	0.6	0.8	
0.2	0.4	0.8	
0	0.4	0.6	
0	0.6	0.6	
0.2	0.6	0.6	
0.2	0.4	0.6	
0	0.4	0.6	
0	0.6	0.6	
0.2	0.6	0.6	
0.2	0.4	0.6	
0	0.4	0.4	
0	0.6	0.4	
0.2	0.6	0.4	
0.2	0.4	0.4	
0	0.4	0.4	
0	0.6	0.4	
0.2	0.6	0.4	
0.2	0.4	0.4	
0	0.4	0.2	
0	0.6	0.2	
0.2	0.6	0.2	
0.2	0.4	0.2	
0	0.4	0.2	
0	0.6	0.2	
0.2	0.6	0.2	
0.2	0.4	0.2	
0	0.4	0	
0	0.6	0	
0.2	0.6	0	
0.2	0.4	0	
0.2	0.4	1	
0.2	0.6	1	
0.4	0.6	1	
0.4	0.4	1	
0.2	0.4	0.8	
0.2	0.6	0.8	
0.4	0.6	0.8	
0.4	0.4	0.8	
0.2	0.4	0.8	
0.2	0.6	0.8	
0.4	0.6	0.8	
0.4	0.4	0.8	
0.2	0.4	0.6	
0.2	0.6	0.6	
0.4	0.6	0.6	
0.4	0.4	0.6	
0.2	0.4	0.6	
0.2	0.6	0.6	
0.4	0.6	0.6	
0.4	0.4	0.6	
0.2	0.4	0.4	
0.2	0.6	0.4	
0.4	0.6	0.4	
0.4	0.4	0.4	
0.2	0.4	0.4	
0.2	0.6	0.4	
0.4	0.6	0.4	
0.4	0.4	0.4	
0.2	0.4	0.2	
0.2	0.6	0.2	
0.4	0.6	0.2	
0.4	0.4	0.2	
0.2	0.4	0.2	
0.2	0.6	0.2	
0.4	0.6	0.2	
0.4	0.4	0.2	
0.2	0.4	0	
0.2	0.6	0	
0.4	0.6	0	
0.4	0.4	0	
0.4	0.4	1	
0.4	0.6	1	
0.6	0.6	1	
0.6	0.4	1	
0.4	0.4	0.8	
0.4	0.6	0.8	
0.6	0.6	0.8	
0.6	0.4	0.8	
0.4	0.4	0.8	
0.4	0.6	0.8	
0.6	0.6	0.8	
0.6	0.4	0.8	
0.4	0.4	0.6	
0.4	0.6	0.6	
0.6	0.6	0.6	
0.6	0.4	0.6	
0.4	0.4	0.6	
0.4	0.6	0.6	
0.6	0.6	0.6	
0.6	0.4	0.6	
0.4	0.4	0.4	
0.4	0.6	0.4	
0.6	0.6	0.4	
0.6	0.4	0.4	
0.4	0.4	0.4	
0.4	0.6	0.4	
0.6	0.6	0.4	
0.6	0.4	0.4	
0.4	0.4	0.2	
0.4	0.6	0.2	
0.6	0.6	0.2	
0.6	0.4	0.2	
0.4	0.4	0.2	
0.4	0.6	0.2	
0.6	0.6	0.2	
0.6	0.4	0.2	
0.4	0.4	0	
0.4	0.6	0	
0.6	0.6	0	
0.6	0.4	0	
0.6	0.4	1	
0.6	0.6	1	
0.8	0.6	1	
0.8	0.4	1	
0.6	0.4	0.8	
0.6	0.6	0.8	
0.8	0.6	0.8	
0.8	0.4	0.8	
0.6	0.4	0.8	
0.6	0.6	0.8	
0.8	0.6	0.8	
0.8	0.4	0.8	
0.6	0.4	0.6	
0.6	0.6	0.6	
0.8	0.6	0.6	
0.8	0.4	0.6	
0.6	0.4	0.6	
0.6	0.6	0.6	
0.8	0.6	0.6	
0.8	0.4	0.6	
0.6	0.4	0.4	
0.6	0.6	0.4	
0.8	0.6	0.4	
0.8	0.4	0.4	
0.6	0.4	0.4	
0.6	0.6	0.4	
0.8	0.6	0.4	
0.8	0.4	0.4	
0.6	0.4	0.2	
0.6	0.6	0.2	
0.8	0.6	0.2	
0.8	0.4	0.2	
0.6	0.4	0.2	
0.6	0.6	0.2	
0.8	0.6	0.2	
0.8	0.4	0.2	
0.6	0.4	0	
0.6	0.6	0	
0.8	0.6	0	
0.8	0.4	0	
0.8	0.4	1	
0.8	0.6	1	
1	0.6	1	
1	0.4	1	
0.8	0.4	0.8	
0.8	0.6	0.8	
1	0.6	0.8	
1	0.4	0.8	
0.8	0.4	0.8	
0.8	0.6	0.8	
1	0.6	0.8	
1	0.4	0.8	
0.8	0.4	0.6	
0.8	0.6	0.6	
1	0.6	0.6	
1	0.4	0.6	
0.8	0.4	0.6	
0.8	0.6	0.6	
1	0.6	0.6	
1	0.4	0.6	
0.8	0.4	0.4	
0.8	0.6	0.4	
1	0.6	0.4	
1	0.4	0.4	
0.8	0.4	0.4	
0.8	0.6	0.4	
1	0.6	0.4	
1	0.4	0.4	
0.8	0.4	0.2	
0.8	0.6	0.2	
1	0.6	0.2	
1	0.4	0.2	
0.8	0.4	0.2	
0.8	0.6	0.2	
1	0.6	0.2	
1	0.4	0.2	
0.8	0.4	0	
0.8	0.6	0	
1	0.6	0	
1	0.4	0	
0	0.6	1	
0	0.8	1	
0.2	0.8	1	
0.2	0.6	1	
0	0.6	0.8	
0	0.8	0.8	
0.2	0.8	0.8	
0.2	0.6	0.8	
0	0.6	0.8	
0	0.8	0.8	
0.2	0.8	0.8	
0.2	0.6	0.8	
0	0.6	0.6	
0	0.8	0.6	
0.2	0.8	0.6	
0.2	0.6	0.6	
0	0.6	0.6	
0	0.8	0.6	
0.2	0.8	0.6	
0.2	0.6	0.6	
0	0.6	0.4	
0	0.8	0.4	
0.2	0.8	0.4	
0.2	0.6	0.4	
0	0.6	0.4	
0	0.8	0.4	
0.2	0.8	0.4	
0.2	0.6	0.4	
0	0.6	0.2	
0	0.8	0.2	
0.2	0.8	0.2	
0.2	0.6	0.2	
0	0.6	0.2	
0	0.8	0.2	
0.2	0.8	0.2	
0.2	0.6	0.2	
0	0.6	0	
0	0.8	0	
0.2	0.8	0	
0.2	0.6	0	
0.2	0.6	1	
0.2	0.8	1	
0.4	0.8	1	
0.4	0.6	1	
0.2	0.6	0.8	
0.2	0.8	0.8	
0.4	0.8	0.8	
0.4	0.6	0.8	
0.2	0.6	0.8	
0.2	0.8	0.8	
0.4	0.8	0.8	
0.4	0.6	0.8	
0.2	0.6	0.6	
0.2	0.8	0.6	
0.4	0.8	0.6	
0.4	0.6	0.6	
0.2	0.6	0.6	
0.2	0.8	0.6	
0.4	0.8	0.6	
0.4	0.6	0.6	
0.2	0.6	0.4	
0.2	0.8	0.4	
0.4	0.8	0.4	
0.4	0.6	0.4	
0.2	0.6	0.4	
0.2	0.8	0.4	
0.4	0.8	0.4	
0.4	0.6	0.4	
0.2	0.6	0.2	
0.2	0.8	0.2	
0.4	0.8	0.2	
0.4	0.6	0.2	
0.2	0.6	0.2	
0.2	0.8	0.2	
0.4	0.8	0.2	
0.4	0.6	0.2	
0.2	0.6	0	
0.2	0.8	0	
0.4	0.8	0	
0.4	0.6	0	
0.4	0.6	1	
0.4	0.8	1	
0.6	0.8	1	
0.6	0.6	1	
0.4	0.6	0.8	
0.4	0.8	0.8	
0.6	0.8	0.8	
0.6	0.6	0.8	
0.4	0.6	0.8	
0.4	0.8	0.8	
0.6	0.8	0.8	
0.6	0.6	0.8	
0.4	0.6	0.6	
0.4	0.8	0.6	
0.6	0.8	0.6	
0.6	0.6	0.6	
0.4	0.6	0.6	
0.4	0.8	0.6	
0.6	0.8	0.6	
0.6	0.6	0.6	
0.4	0.6	0.4	
0.4	0.8	0.4	
0.6	0.8	0.4	
0.6	0.6	0.4	
0.4	0.6	0.4	
0.4	0.8	0.4	
0.6	0.8	0.4	
0.6	0.6	0.4	
0.4	0.6	0.2	
0.4	0.8	0.2	
0.6	0.8	0.2	
0.6	0.6	0.2	
0.4	0.6	0.2	
0.4	0.8	0.2	
0.6	0.8	0.2	
0.6	0.6	0.2	
0.4	0.6	0	
0.4	0.8	0	
0.6	0.8	0	
0.6	0.6	0	
0.6	0.6	1	
0.6	0.8	1	
0.8	0.8	1	
0.8	0.6	1	
0.6	0.6	0.8	
0.6	0.8	0.8	
0.8	0.8	0.8	
0.8	0.6	0.8	
0.6	0.6	0.8	
0.6	0.8	0.8	
0.8	0.8	0.8	
0.8	0.6	0.8	
0.6	0.6	0.6	
0.6	0.8	0.6	
0.8	0.8	0.6	
0.8	0.6	0.6	
0.6	0.6	0.6	
0.6	0.8	0.6	
0.8	0.8	0.6	
0.8	0.6	0.6	
0.6	0.6	0.4	
0.6	0.8	0.4	
0.8	0.8	0.4	
0.8	0.6	0.4	
0.6	0.6	0.4	
0.6	0.8	0.4	
0.8	0.8	0.4	
0.8	0.6	0.4	
0.6	0.6	0.2	
0.6	0.8	0.2	
0.8	0.8	0.2	
0.8	0.6	0.2	
0.6	0.6	0.2	
0.6	0.8	0.2	
0.8	0.8	0.2	
0.8	0.6	0.2	
0.6	0.6	0	
0.6	0.8	0	
0.8	0.8	0	
0.8	0.6	0	
0.8	0.6	1	
0.8	0.8	1	
1	0.8	1	
1	0.6	1	
0.8	0.6	0.8	
0.8	0.8	0.8	
1	0.8	0.8	
1	0.6	0.8	
0.8	0.6	0.8	
0.8	0.8	0.8	
1	0.8	0.8	
1	0.6	0.8	
0.8	0.6	0.6	
0.8	0.8	0.6	
1	0.8	0.6	
1	0.6	0.6	
0.8	0.6	0.6	
0.8	0.8	0.6	
1	0.8	0.6	
1	0.6	0.6	
0.8	0.6	0.4	
0.8	0.8	0.4	
1	0.8	0.4	
1	0.6	0.4	
0.8	0.6	0.4	
0.8	0.8	0.4	
1	0.8	0.4	
1	0.6	0.4	
0.8	0.6	0.2	
0.8	0.8	0.2	
1	0.8	0.2	
1	0.6	0.2	
0.8	0.6	0.2	
0.8	0.8	0.2	
1	0.8	0.2	
1	0.6	0.2	
0.8	0.6	0	
0.8	0.8	0	
1	0.8	0	
1	0.6	0	
0	0.8	1	
0	1	1	
0.2	1	1	
0.2	0.8	1	
0	0.8	0.8	
0	1	0.8	
0.2	1	0.8	
0.2	0.8	0.8	
0	0.8	0.8	
0	1	0.8	
0.2	1	0.8	
0.2	0.8	0.8	
0	0.8	0.6	
0	1	0.6	
0.2	1	0.6	
0.2	0.8	0.6	
0	0.8	0.6	
0	1	0.6	
0.2	1	0.6	
0.2	0.8	0.6	
0	0.8	0.4	
0	1	0.4	
0.2	1	0.4	
0.2	0.8	0.4	
0	0.8	0.4	
0	1	0.4	
0.2	1	0.4	
0.2	0.8	0.4	
0	0.8	0.2	
0	1	0.2	
0.2	1	0.2	
0.2	0.8	0.2	
0	0.8	0.2	
0	1	0.2	
0.2	1	0.2	
0.2	0.8	0.2	
0	0.8	0	
0	1	0	
0.2	1	0	
0.2	0.8	0	
0.2	0.8	1	
0.2	1	1	
0.4	1	1	
0.4	0.8	1	
0.2	0.8	0.8	
0.2	1	0.8	
0.4	1	0.8	
0.4	0.8	0.8	
0.2	0.8	0.8	
0.2	1	0.8	
0.4	1	0.8	
0.4	0.8	0.8	
0.2	0.8	0.6	
0.2	1	0.6	
0.4	1	0.6	
0.4	0.8	0.6	
0.2	0.8	0.6	
0.2	1	0.6	
0.4	1	0.6	
0.4	0.8	0.6	
0.2	0.8	0.4	
0.2	1	0.4	
0.4	1	0.4	
0.4	0.8	0.4	
0.2	0.8	0.4	
0.2	1	0.4	
0.4	1	0.4	
0.4	0.8	0.4	
0.2	0.8	0.2	
0.2	1	0.2	
0.4	1	0.2	
0.4	0.8	0.2	
0.2	0.8	0.2	
0.2	1	0.2	
0.4	1	0.2	
0.4	0.8	0.2	
0.2	0.8	0	
0.2	1	0	
0.4	1	0	
0.4	0.8	0	
0.4	0.8	1	
0.4	1	1	
0.6	1	1	
0.6	0.8	1	
0.4	0.8	0.8	
0.4	1	0.8	
0.6	1	0.8	
0.6	0.8	0.8	
0.4	0.8	0.8	
0.4	1	0.8	
0.6	1	0.8	
0.6	0.8	0.8	
0.4	0.8	0.6	
0.4	1	0.6	
0.6	1	0.6	
0.6	0.8	0.6	
0.4	0.8	0.6	
0.4	1	0.6	
0.6	1	0.6	
0.6	0.8	0.6	
0.4	0.8	0.4	
0.4	1	0.4	
0.6	1	0.4	
0.6	0.8	0.4	
0.4	0.8	0.4	
0.4	1	0.4	
0.6	1	0.4	
0.6	0.8	0.4	
0.4	0.8	0.2	
0.4	1	0.2	
0.6	1	0.2	
0.6	0.8	0.2	
0.4	0.8	0.2	
0.4	1	0.2	
0.6	1	0.2	
0.6	0.8	0.2	
0.4	0.8	0	
0.4	1	0	
0.6	1	0	
0.6	0.8	0	
0.6	0.8	1	
0.6	1	1	
0.8	1	1	
0.8	0.8	1	
0.6	0.8	0.8	
0.6	1	0.8	
0.8	1	0.8	
0.8	0.8	0.8	
0.6	0.8	0.8	
0.6	1	0.8	
0.8	1	0.8	
0.8	0.8	0.8	
0.6	0.8	0.6	
0.6	1	0.6	
0.8	1	0.6	
0.8	0.8	0.6	
0.6	0.8	0.6	
0.6	1	0.6	
0.8	1	0.6	
0.8	0.8	0.6	
0.6	0.8	0.4	
0.6	1	0.4	
0.8	1	0.4	
0.8	0.8	0.4	
0.6	0.8	0.4	
0.6	1	0.4	
0.8	1	0.4	
0.8	0.8	0.4	
0.6	0.8	0.2	
0.6	1	0.2	
0.8	1	0.2	
0.8	0.8	0.2	
0.6	0.8	0.2	
0.6	1	0.2	
0.8	1	0.2	
0.8	0.8	0.2	
0.6	0.8	0	
0.6	1	0	
0.8	1	0	
0.8	0.8	0	
0.8	0.8	1	
0.8	1	1	
1	1	1	
1	0.8	1	
0.8	0.8	0.8	
0.8	1	0.8	
1	1	0.8	
1	0.8	0.8	
0.8	0.8	0.8	
0.8	1	0.8	
1	1	0.8	
1	0.8	0.8	
0.8	0.8	0.6	
0.8	1	0.6	
1	1	0.6	
1	0.8	0.6	
0.8	0.8	0.6	
0.8	1	0.6	
1	1	0.6	
1	0.8	0.6	
0.8	0.8	0.4	
0.8	1	0.4	
1	1	0.4	
1	0.8	0.4	
0.8	0.8	0.4	
0.8	1	0.4	
1	1	0.4	
1	0.8	0.4	
0.8	0.8	0.2	
0.8	1	0.2	
1	1	0.2	
1	0.8	0.2	
0.8	0.8	0.2	
0.8	1	0.2	
1	1	0.2	
1	0.8	0.2	
0.8	0.8	0	
0.8	1	0	
1	1	0	
1	0.8	0	
CELLS 125 1125
8	0	1	2	3	4	5	6	7	
8	8	9	10	11	12	13	14	15	
8	16	17	18	19	20	21	22	23	
8	24	25	26	27	28	29	30	31	
8	32	33	34	35	36	37	38	39	
8	40	41	42	43	44	45	46	47	
8	48	49	50	51	52	53	54	55	
8	56	57	58	59	60	61	62	63	
8	64	65	66	67	68	69	70	71	
8	72	73	74	75	76	77	78	79	
8	80	81	82	83	84	85	86	87	
8	88	89	90	91	92	93	94	95	
8	96	97	98	99	100	101	102	103	
8	104	105	106	107	108	109	110	111	
8	112	113	114	115	116	117	118	119	
8	120	121	122	123	124	125	126	127	
8	128	129	130	131	132	133	134	135	
8	136	137	138	139	140	141	142	143	
8	144	145	146	147	148	149	150	151	
8	152	153	154	155	156	157	158	159	
8	160	161	162	163	164	165	166	167	
8	168	169	170	171	172	173	174	175	
8	176	177	178	179	180	181	182	183	
8	184	185	186	187	188	189	190	191	
8	192	193	194	195	196	197	198	199	
8	200	201	202	203	204	205	206	207	
8	208	209	210	211	212	213	214	215	
8	216	217	218	219	220	221	222	223	
8	224	225	226	227	228	229	230	231	
8	232	233	234	235	236	237	238	239	
8	240	241	242	243	244	245	246	247	
8	248	249	250	251	252	253	254	255	
8	256	257	258	259	260	261	262	263	
8	264	265	266	267	268	269	270	271	
8	272	273	274	275	276	277	278	279	
8	280	281	282	283	284	285	286	287	
8	288	289	290	291	292	293	294	295	
8	296	297	298	299	300	301	302	303	
8	304	305	306	307	308	309	310	311	
8	312	313	314	315	316	317	318	319	
8	320	321	322	323	324	325	326	327	
8	328	329	330	331	332	333	334	335	
8	336	337	338	339	340	341	342	343	
8	344	345	346	347	348	349	350	351	
8	352	353	354	355	356	357	358	359	
8	360	361	362	363	364	365	366	367	
8	368	369	370	371	372	373	374	375	
8	376	377	378	379	380	381	382	383	
8	384	385	386	387	388	389	390	391	
8	392	393	394	395	396	397	398	399	
8	400	401	402	403	404	405	406	407	
8	408	409	410	411	412	413	414	415	
8	416	417	418	419	420	421	422	423	
8	424	425	426	427	428	429	430	431	
8	432	433	434	435	436	437	438	439	
8	440	441	442	443	444	445	446	447	
8	448	449	450	451	452	453	454	455	
8	456	457	458	459	460	461	462	463	
8	464	465	466	467	468	469	470	471	
8	472	473	474	475	476	477	478	479	
8	480	481	482	483	484	485	486	487	
8	488	489	490	491	492	493	494	495	
8	496	497	498	499	500	501	502	503	
8	504	505	506	507	508	509	510	511	
8	512	513	514	515	516	517	518	519	
8	520	521	522	523	524	525	526	527	
8	528	529	530	531	532	533	534	535	
8	536	537	538	539	540	541	542	543	
8	544	545	546	547	548	549	550	551	
8	552	553	554	555	556	557	558	559	
8	560	561	562	563	564	565	566	567	
8	568	569	570	571	572	573	574	575	
8	576	577	578	579	580	581	582	583	
8	584	585	586	587	588	589	590	591	
8	592	593	594	595	596	597	598	599	
8	600	601	602	603	604	605	606	607	
8	608	609	610	611	612	613	614	615	
8	616	617	618	619	620	621	622	623	
8	624	625	626	627	628	629	630	631	
8	632	633	634	635	636	637	638	639	
8	640	641	642	643	644	645	646	647	
8	648	649	650	651	652	653	654	655	
8	656	657	658	659	660	661	662	663	
8	664	665	666	667	668	669	670	671	
8	672	673	674	675	676	677	678	679	
8	680	681	682	683	684	685	686	687	
8	688	689	690	691	692	693	694	695	
8	696	697	698	699	700	701	702	703	
8	704	705	706	707	708	709	710	711	
8	712	713	714	715	716	717	718	719	
8	720	721	722	723	724	725	726	727	
8	728	729	730	731	732	733	734	735	
8	736	737	738	739	740	741	742	743	
8	744	745	746	747	748	749	750	751	
8	752	753	754	755	756	757	758	759	
8	760	761	762	763	764	765	766	767	
8	768	769	770	771	772	773	774	775	
8	776	777	778	779	780	781	782	783	
8	784	785	786	787	788	789	790	791	
8	792	793	794	795	796	797	798	799	
8	800	801	802	803	804	805	806	807	
8	808	809	810	811	812	813	814	815	
8	816	817	818	819	820	821	822	823	
8	824	825	826	827	828	829	830	831	
8	832	833	834	835	836	837	838	839	
8	840	841	842	843	844	845	846	847	
8	848	849	850	851	852	853	854	855	
8	856	857	858	859	860	861	862	863	
8	864	865	866	867	868	869	870	871	
8	872	873	874	875	876	877	878	879	
8	880	881	882	883	884	885	886	887	
8	888	889	890	891	892	893	894	895	
8	896	897	898	899	900	901	902	903	
8	904	905	906	907	908	909	910	911	
8	912	913	914	915	916	917	918	919	
8	920	921	922	923	924	925	926	927	
8	928	929	930	931	932	933	934	935	
8	936	937	938	939	940	941	942	943	
8	944	945	946	947	948	949	950	951	
8	952	953	954	955	956	957	958	959	
8	960	961	962	963	964	965	966	967	
8	968	969	970	971	972	973	974	975	
8	976	977	978	979	980	981	982	983	
8	984	985	986	987	988	989	990	991	
8	992	993	994	995	996	997	998	999	
CELL_TYPES 125
12
12
12
12
12
12
12
12
12
12
12
12
12
12
12
12
12
12
12
12
12
12
12
12
12
12
12
12
12
12
12
12
12
12
12
12
12
12
12
12
12
12
12
12
12
12
12
12
12
12
12
12
12
12
12
12
12
12
12
12
12
12
12
12
12
12
12
12
12
12
12
12
12
12
12
12
12
12
12
12
12
12
12
12
12
12
12
12
12
12
12
12
12
12
12
12
12
12
12
12
12
12
12
12
12
12
12
12
12
12
12
12
12
12
12
12
12
12
12
12
12
12
12
12
12
CELL_DATA 125
POINT_DATA 1000
SCALARS Pressure float 
LOOKUP_TABLE default
-4.5 -4.5 -4.5 -4.5 -4.5 -4.5 -4.5 -4.5 -3.5 -3.5 -3.5 -3.5 -3.5 -3.5 -3.5 -3.5 -2.5 -2.5 -2.5 -2.5 -2.5 -2.5 -2.5 -2.5 -1.5 -1.5 -1.5 -1.5 -1.5 -1.5 -1.5 -1.5 -0.5 -0.5 -0.5 -0.5 -0.5 -0.5 -0.5 -0.5 -4.5 -4.5 -4.5 -4.5 -4.5 -4.5 -4.5 -4.5 -3.5 -3.5 -3.5 -3.5 -3.5 -3.5 -3.5 -3.5 -2.5 -2.5 -2.5 -2.5 -2.5 -2.5 -2.5 -2.5 -1.5 -1.5 -1.5 -1.5 -1.5 -1.5 -1.5 -1.5 -0.5 -0.5 -0.5 -0.5 -0.5 -0.5 -0.5 -0.5 -4.5 -4.5 -4.5 -4.5 -4.5 -4.5 -4.5 -4.5 -3.5 -3.5 -3.5 -3.5 -3.5 -3.5 -3.5 -3.5 -2.5 -2.5 -2.5 -2.5 -2.5 -2.5 -2.5 -2.5 -1.5 -1.5 -1.5 -1.5 -1.5 -1.5 -1.5 -1.5 -0.5 -0.5 -0.5 -0.5 -0.5 -0.5 -0.5 -0.5 -4.5 -4.5 -4.5 -4.5 -4.5 -4.5 -4.5 -4.5 -3.5 -3.5 -3.5 -3.5 -3.5 -3.5 -3.5 -3.5 -2.5 -2.5 -2.5 -2.5 -2.5 -2.5 -2.5 -2.5 -1.5 -1.5 -1.5 -1.5 -1.5 -1.5 -1.5 -1.5 -0.5 -0.5 -0.5 -0.5 -0.5 -0.5 -0.5 -0.5 -4.5 -4.5 -4.5 -4.5 -4.5 -4.5 -4.5 -4.5 -3.5 -3.5 -3.5 -3.5 -3.5 -3.5 -3.5 -3.5 -2.5 -2.5 -2.5 -2.5 -2.5 -2.5 -2.5 -2.5 -1.5 -1.5 -1.5 -1.5 -1.5 -1.5 -1.5 -1.5 -0.5 -0.5 -0.5 -0.5 -0.5 -0.5 -0.5 -0.5 -4.5 -4.5 -4.5 -4.5 -4.5 -4.5 -4.5 -4.5 -3.5 -3.5 -3.5 -3.5 -3.5 -3.5 -3.5 -3.5 -2.5 -2.5 -2.5 -2.5 -2.5 -2.5 -2.5 -2.5 -1.5 -1.5 -1.5 -1.5 -1.5 -1.5 -1.5 -1.5 -0.5 -0.5 -0.5 -0.5 -0.5 -0.5 -0.5 -0.5 -4.5 -4.5 -4.5 -4.5 -4.5 -4.5 -4.5 -4.5 -3.5 -3.5 -3.5 -3.5 -3.5 -3.5 -3.5 -3.5 -2.5 -2.5 -2.5 -2.5 -2.5 -2.5 -2.5 -2.5 -1.5 -1.5 -1.5 -1.5 -1.5 -1.5 -1.5 -1.5 -0.5 -0.5 -0.5 -0.5 -0.5 -0.5 -0.5 -0.5 -4.5 -4.5 -4.5 -4.5 -4.5 -4.5 -4.5 -4.5 -3.5 -3.5 -3.5 -3.5 -3.5 -3.5 -3.5 -3.5 -2.5 -2.5 -2.5 -2.5 -2.5 -2.5 -2.5 -2.5 -1.5 -1.5 -1.5 -1.5 -1.5 -1.5 -1.5 -1.5 -0.5 -0.5 -0.5 -0.5 -0.5 -0.5 -0.5 -0.5 -4.5 -4.5 -4.5 -4.5 -4.5 -4.5 -4.5 -4.5 -3.5 -3.5 -3.5 -3.5 -3.5 -3.5 -3.5 -3.5 -2.5 -2.5 -2.5 -2.5 -2.5 -2.5 -2.5 -2.5 -1.5 -1.5 -1.5 -1.5 -1.5 -1.5 -1.5 -1.5 -0.5 -0.5 -0.5 -0.5 -0.5 -0.5 -0.5 -0.5 -4.5 -4.5 -4.5 -4.5 -4.5 -4.5 -4.5 -4.5 -3.5 -3.5 -3.5 -3.5 -3.5 -3.5 -3.5 -3.5 -2.5 -2.5 -2.5 -2.5 -2.5 -2.5 -2.5 -2.5 -1.5 -1.5 -1.5 -1.5 -1.5 -1.5 -1.5 -1.5 -0.5 -0.5 -0.5 -0.5 -0.5 -0.5 -0.5 -0.5 -4.5 -4.5 -4.5 -4.5 -4.5 -4.5 -4.5 -4.5 -3.5 -3.5 -3.5 -3.5 -3.5 -3.5 -3.5 -3.5 -2.5 -2.5 -2.5 -2.5 -2.5 -2.5 -2.5 -2.5 -1.5 -1.5 -1.5 -1.5 -1.5 -1.5 -1.5 -1.5 -0.5 -0.5 -0.5 -0.5 -0.5 -0.5 -0.5 -0.5 -4.5 -4.5 -4.5 -4.5 -4.5 -4.5 -4.5 -4.5 -3.5 -3.5 -3.5 -3.5 -3.5 -3.5 -3.5 -3.5 -2.5 -2.5 -2.5 -2.5 -2.5 -2.5 -2.5 -2.5 -1.5 -1.5 -1.5 -1.5 -1.5 -1.5 -1.5 -1.5 -0.5 -0.5 -0.5 -0.5 -0.5 -0.5 -0.5 -0.5 -4.5 -4.5 -4.5 -4.5 -4.5 -4.5 -4.5 -4.5 -3.5 -3.5 -3.5 -3.5 -3.5 -3.5 -3.5 -3.5 -2.5 -2.5 -2.5 -2.5 -2.5 -2.5 -2.5 -2.5 -1.5 -1.5 -1.5 -1.5 -1.5 -1.5 -1.5 -1.5 -0.5 -0.5 -0.5 -0.5 -0.5 -0.5 -0.5 -0.5 -4.5 -4.5 -4.5 -4.5 -4.5 -4.5 -4.5 -4.5 -3.5 -3.5 -3.5 -3.5 -3.5 -3.5 -3.5 -3.5 -2.5 -2.5 -2.5 -2.5 -2.5 -2.5 -2.5 -2.5 -1.5 -1.5 -1.5 -1.5 -1.5 -1.5 -1.5 -1.5 -0.5 -0.5 -0.5 -0.5 -0.5 -0.5 -0.5 -0.5 -4.5 -4.5 -4.5 -4.5 -4.5 -4.5 -4.5 -4.5 -3.5 -3.5 -3.5 -3.5 -3.5 -3.5 -3.5 -3.5 -2.5 -2.5 -2.5 -2.5 -2.5 -2.5 -2.5 -2.5 -1.5 -1.5 -1.5 -1.5 -1.5 -1.5 -1.5 -1.5 -0.5 -0.5 -0.5 -0.5 -0.5 -0.5 -0.5 -0.5 -4.5 -4.5 -4.5 -4.5 -4.5 -4.5 -4.5 -4.5 -3.5 -3.5 -3.5 -3.5 -3.5 -3.5 -3.5 -3.5 -2.5 -2.5 -2.5 -2.5 -2.5 -2.5 -2.5 -2.5 -1.5 -1.5 -1.5 -1.5 -1.5 -1.5 -1.5 -1.5 -0.5 -0.5 -0.5 -0.5 -0.5 -0.5 -0.5 -0.5 -4.5 -4.5 -4.5 -4.5 -4.5 -4.5 -4.5 -4.5 -3.5 -3.5 -3.5 -3.5 -3.5 -3.5 -3.5 -3.5 -2.5 -2.5 -2.5 -2.5 -2.5 -2.5 -2.5 -2.5 -1.5 -1.5 -1.5 -1.5 -1.5 -1.5 -1.5 -1.5 -0.5 -0.5 -0.5 -0.5 -0.5 -0.5 -0.5 -0.5 -4.5 -4.5 -4.5 -4.5 -4.5 -4.5 -4.5 -4.5 -3.5 -3.5 -3.5 -3.5 -3.5 -3.5 -3.5 -3.5 -2.5 -2.5 -2.5 -2.5 -2.5 -2.5 -2.5 -2.5 -1.5 -1.5 -1.5 -1.5 -1.5 -1.5 -1.5 -1.5 -0.5 -0.5 -0.5 -0.5 -0.5 -0.5 -0.5 -0.5 -4.5 -4.5 -4.5 -4.5 -4.5 -4.5 -4.5 -4.5 -3.5 -3.5 -3.5 -3.5 -3.5 -3.5 -3.5 -3.5 -2.5 -2.5 -2.5 -2.5 -2.5 -2.5 -2.5 -2.5 -1.5 -1.5 -1.5 -1.5 -1.5 -1.5 -1.5 -1.5 -0.5 -0.5 -0.5 -0.5 -0.5 -0.5 -0.5 -0.5 -4.5 -4.5 -4.5 -4.5 -4.5 -4.5 -4.5 -4.5 -3.5 -3.5 -3.5 -3.5 -3.5 -3.5 -3.5 -3.5 -2.5 -2.5 -2.5 -2.5 -2.5 -2.5 -2.5 -2.5 -1.5 -1.5 -1.5 -1.5 -1.5 -1.5 -1.5 -1.5 -0.5 -0.5 -0.5 -0.5 -0.5 -0.5 -0.5 -0.5 -4.5 -4.5 -4.5 -4.5 -4.5 -4.5 -4.5 -4.5 -3.5 -3.5 -3.5 -3.5 -3.5 -3.5 -3.5 -3.5 -2.5 -2.5 -2.5 -2.5 -2.5 -2.5 -2.5 -2.5 -1.5 -1.5 -1.5 -1.5 -1.5 -1.5 -1.5 -1.5 -0.5 -0.5 -0.5 -0.5 -0.5 -0.5 -0.5 -0.5 -4.5 -4.5 -4.5 -4.5 -4.5 -4.5 -4.5 -4.5 -3.5 -3.5 -3.5 -3.5 -3.5 -3.5 -3.5 -3.5 -2.5 -2.5 -2.5 -2.5 -2.5 -2.5 -2.5 -2.5 -1.5 -1.5 -1.5 -1.5 -1.5 -1.5 -1.5 -1.5 -0.5 -0.5 -0.5 -0.5 -0.5 -0.5 -0.5 -0.5 -4.5 -4.5 -4.5 -4.5 -4.5 -4.5 -4.5 -4.5 -3.5 -3.5 -3.5 -3.5 -3.5 -3.5 -3.5 -3.5 -2.5 -2.5 -2.5 -2.5 -2.5 -2.5 -2.5 -2.5 -1.5 -1.5 -1.5 -1.5 -1.5 -1.5 -1.5 -1.5 -0.5 -0.5 -0.5 -0.5 -0.5 -0.5 -0.5 -0.5 -4.5 -4.5 -4.5 -4.5 -4.5 -4.5 -4.5 -4.5 -3.5 -3.5 -3.5 -3.5 -3.5 -3.5 -3.5 -3.5 -2.5 -2.5 -2.5 -2.5 -2.5 -2.5 -2.5 -2.5 -1.5 -1.5 -1.5 -1.5 -1.5 -1.5 -1.5 -1.5 -0.5 -0.5 -0.5 -0.5 -0.5 -0.5 -0.5 -0.5 -4.5 -4.5 -4.5 -4.5 -4.5 -4.5 -4.5 -4.5 -3.5 -3.5 -3.5 -3.5 -3.5 -3.5 -3.5 -3.5 -2.5 -2.5 -2.5 -2.5 -2.5 -2.5 -2.5 -2.5 -1.5 -1.5 -1.5 -1.5 -1.5 -1.5 -1.5 -1.5 -0.5 -0.5 -0.5 -0.5 -0.5 -0.5 -0.5 -0.5 
VECTORS Velocity float 
5e-11 4.76143e-11 0.0100661 
5e-11 -1.72001e-11 0.410066 
4.56133e-12 -2.26718e-11 0.410066 
-1.78725e-11 4.76143e-11 0.0100661 
4e-11 4.23857e-11 0.0100661 
4e-11 5.6562e-11 0.410066 
3.45081e-11 4.66341e-11 0.410066 
8.08814e-12 4.23857e-11 0.0100661 
4e-11 3.76143e-11 0.0100661 
4e-11 5.4008e-11 0.410066 
3.43664e-11 4.08362e-11 0.410066 
3.07772e-12 3.76143e-11 0.0100661 
3e-11 3.23857e-11 0.0100661 
3e-11 4.49898e-11 0.410066 
2.89908e-11 3.26381e-11 0.410066 
-3.68956e-12 3.23857e-11 0.0100661 
3e-11 2.76143e-11 0.0100661 
3e-11 4.29869e-11 0.410066 
2.49724e-11 3.2514e-11 0.410066 
6.17016e-13 2.76143e-11 0.0100661 
2e-11 2.23857e-11 0.0100661 
2e-11 2.82944e-11 0.410066 
1.92571e-11 1.91738e-11 0.410066 
-3.03154e-12 2.23857e-11 0.0100661 
2e-11 1.76143e-11 0.0100661 
2e-11 2.7142e-11 0.410066 
1.55742e-11 2.06217e-11 0.410066 
1.07059e-12 1.76143e-11 0.0100661 
1e-11 1.23857e-11 0.0100661 
1e-11 1.3255e-11 0.410066 
1.02954e-11 7.91124e-12 0.410066 
-2.4858e-12 1.23857e-11 0.0100661 
1e-11 7.61432e-12 0.0100661 
1e-11 1.05851e-11 0.410066 
6.78063e-12 8.00211e-12 0.410066 
1.44622e-12 7.61432e-12 0.0100661 
4.43563e-21 2.38568e-12 0.0100661 
-1.79602e-21 1.765e-11 0.410066 
1.72516e-12 1.62718e-11 0.410066 
-1.93797e-12 2.38568e-12 0.0100661 
-1.78725e-11 4.76143e-11 0.0100661 
4.56133e-12 -2.08146e-11 0.410066 
2.6625e-12 -2.00816e-11 0.410066 
-6.54897e-13 4.76143e-11 0.0100661 
8.08814e-12 4.23857e-11 0.0100661 
3.45081e-11 4.1321e-11 0.410066 
5.07849e-12 3.90364e-11 0.410066 
2.46794e-12 4.23857e-11 0.0100661 
3.07772e-12 3.76143e-11 0.0100661 
3.43664e-11 3.83993e-11 0.410066 
7.58518e-12 3.4335e-11 0.410066 
1.02611e-12 3.76143e-11 0.0100661 
-3.68956e-12 3.23857e-11 0.0100661 
2.89908e-11 3.0228e-11 0.410066 
7.62876e-12 2.66234e-11 0.410066 
-2.73315e-14 3.23857e-11 0.0100661 
6.17016e-13 2.76143e-11 0.0100661 
2.49724e-11 2.96884e-11 0.410066 
6.74134e-12 2.57349e-11 0.410066 
1.15875e-12 2.76143e-11 0.0100661 
-3.03154e-12 2.23857e-11 0.0100661 
1.92571e-11 1.83263e-11 0.410066 
5.28348e-12 1.54225e-11 0.410066 
-2.79884e-13 2.23857e-11 0.0100661 
1.07059e-12 1.76143e-11 0.0100661 
1.55742e-11 1.82701e-11 0.410066 
4.13064e-12 1.57685e-11 0.410066 
8.0958e-13 1.76143e-11 0.0100661 
-2.4858e-12 1.23857e-11 0.0100661 
1.02954e-11 8.04389e-12 0.410066 
2.7712e-12 6.29943e-12 0.410066 
-3.8144e-13 1.23857e-11 0.0100661 
1.44622e-12 7.61432e-12 0.0100661 
6.78063e-12 6.38627e-12 0.410066 
1.73682e-12 5.3026e-12 0.410066 
6.20023e-13 7.61432e-12 0.0100661 
-1.93797e-12 2.38568e-12 0.0100661 
1.72516e-12 1.71511e-11 0.410066 
5.01769e-13 1.68091e-11 0.410066 
-4.83036e-13 2.38568e-12 0.0100661 
-6.54897e-13 4.76143e-11 0.0100661 
2.6625e-12 -2.05044e-11 0.410066 
-2.66327e-12 -2.05051e-11 0.410066 
6.55164e-13 4.76143e-11 0.0100661 
2.46794e-12 4.23857e-11 0.0100661 
5.07849e-12 3.94214e-11 0.410066 
-5.08009e-12 3.94191e-11 0.410066 
-2.4674e-12 4.23857e-11 0.0100661 
1.02611e-12 3.76143e-11 0.0100661 
7.58518e-12 3.51649e-11 0.410066 
-7.58431e-12 3.51661e-11 0.410066 
-1.02786e-12 3.76143e-11 0.0100661 
-2.73315e-14 3.23857e-11 0.0100661 
7.62876e-12 2.66203e-11 0.410066 
-7.62784e-12 2.6621e-11 0.410066 
2.91321e-14 3.23857e-11 0.0100661 
1.15875e-12 2.76143e-11 0.0100661 
6.74134e-12 2.60773e-11 0.410066 
-6.73766e-12 2.60782e-11 0.410066 
-1.15864e-12 2.76143e-11 0.0100661 
-2.79884e-13 2.23857e-11 0.0100661 
5.28348e-12 1.56564e-11 0.410066 
-5.2808e-12 1.56574e-11 0.410066 
2.79917e-13 2.23857e-11 0.0100661 
8.0958e-13 1.76143e-11 0.0100661 
4.13064e-12 1.58755e-11 0.410066 
-4.12871e-12 1.58745e-11 0.410066 
-8.09183e-13 1.76143e-11 0.0100661 
-3.8144e-13 1.23857e-11 0.0100661 
2.7712e-12 6.53297e-12 0.410066 
-2.77077e-12 6.53427e-12 0.410066 
3.81358e-13 1.23857e-11 0.0100661 
6.20023e-13 7.61432e-12 0.0100661 
1.73682e-12 5.27132e-12 0.410066 
-1.73582e-12 5.27047e-12 0.410066 
-6.19803e-13 7.61432e-12 0.0100661 
-4.83036e-13 2.38568e-12 0.0100661 
5.01769e-13 1.69509e-11 0.410066 
-5.01448e-13 1.69514e-11 0.410066 
4.82785e-13 2.38568e-12 0.0100661 
6.55164e-13 4.76143e-11 0.0100661 
-2.66327e-12 -2.00812e-11 0.410066 
-4.56135e-12 -2.08138e-11 0.410066 
1.7873e-11 4.76143e-11 0.0100661 
-2.4674e-12 4.23857e-11 0.0100661 
-5.08009e-12 3.90343e-11 0.410066 
-3.45078e-11 4.13218e-11 0.410066 
-8.08787e-12 4.23857e-11 0.0100661 
-1.02786e-12 3.76143e-11 0.0100661 
-7.58431e-12 3.43361e-11 0.410066 
-3.43654e-11 3.83974e-11 0.410066 
-3.07779e-12 3.76143e-11 0.0100661 
2.91321e-14 3.23857e-11 0.0100661 
-7.62784e-12 2.66256e-11 0.410066 
-2.89901e-11 3.02285e-11 0.410066 
3.69009e-12 3.23857e-11 0.0100661 
-1.15864e-12 2.76143e-11 0.0100661 
-6.73766e-12 2.57353e-11 0.410066 
-2.4971e-11 2.969e-11 0.410066 
-6.17916e-13 2.76143e-11 0.0100661 
2.79917e-13 2.23857e-11 0.0100661 
-5.2808e-12 1.5423e-11 0.410066 
-1.92554e-11 1.83273e-11 0.410066 
3.0321e-12 2.23857e-11 0.0100661 
-8.09183e-13 1.76143e-11 0.0100661 
-4.12871e-12 1.57684e-11 0.410066 
-1.55723e-11 1.82714e-11 0.410066 
-1.06989e-12 1.76143e-11 0.0100661 
3.81358e-13 1.23857e-11 0.0100661 
-2.77077e-12 6.29891e-12 0.410066 
-1.02948e-11 8.04568e-12 0.410066 
2.48579e-12 1.23857e-11 0.0100661 
-6.19803e-13 7.61432e-12 0.0100661 
-1.73582e-12 5.30287e-12 0.410066 
-6.77998e-12 6.38809e-12 0.410066 
-1.44605e-12 7.61432e-12 0.0100661 
4.82785e-13 2.38568e-12 0.0100661 
-5.01448e-13 1.68086e-11 0.410066 
-1.72481e-12 1.71515e-11 0.410066 
1.93799e-12 2.38568e-12 0.0100661 
1.7873e-11 4.76143e-11 0.0100661 
-4.56135e-12 -2.26728e-11 0.410066 
-5e-11 -1.71995e-11 0.410066 
-5e-11 4.76143e-11 0.0100661 
-8.08787e-12 4.23857e-11 0.0100661 
-3.45078e-11 4.66349e-11 0.410066 
-4e-11 5.65643e-11 0.410066 
-4e-11 4.23857e-11 0.0100661 
-3.07779e-12 3.76143e-11 0.0100661 
-3.43654e-11 4.08377e-11 0.410066 
-4e-11 5.40091e-11 0.410066 
-4e-11 3.76143e-11 0.0100661 
3.69009e-12 3.23857e-11 0.0100661 
-2.89901e-11 3.2639e-11 0.410066 
-3e-11 4.49899e-11 0.410066 
-3e-11 3.23857e-11 0.0100661 
-6.17916e-13 2.76143e-11 0.0100661 
-2.4971e-11 3.25146e-11 0.410066 
-3e-11 4.2989e-11 0.410066 
-3e-11 2.76143e-11 0.0100661 
3.0321e-12 2.23857e-11 0.0100661 
-1.92554e-11 1.91748e-11 0.410066 
-2e-11 2.82968e-11 0.410066 
-2e-11 2.23857e-11 0.0100661 
-1.06989e-12 1.76143e-11 0.0100661 
-1.55723e-11 2.06231e-11 0.410066 
-2e-11 2.71435e-11 0.410066 
-2e-11 1.76143e-11 0.0100661 
2.48579e-12 1.23857e-11 0.0100661 
-1.02948e-11 7.91416e-12 0.410066 
-1e-11 1.32553e-11 0.410066 
-1e-11 1.23857e-11 0.0100661 
-1.44605e-12 7.61432e-12 0.0100661 
-6.77998e-12 8.00379e-12 0.410066 
-1e-11 1.0587e-11 0.410066 
-1e-11 7.61432e-12 0.0100661 
1.93799e-12 2.38568e-12 0.0100661 
-1.72481e-12 1.62719e-11 0.410066 
1.79606e-21 1.76495e-11 0.410066 
-4.43559e-21 2.38568e-12 0.0100661 
5e-11 -1.72001e-11 0.410066 
5e-11 -3.01152e-12 0.610066 
-4.37463e-12 -4.64261e-12 0.610066 
-3.27063e-12 -2.26718e-11 0.410066 
4e-11 5.6562e-11 0.410066 
4e-11 1.27927e-11 0.610066 
3.4724e-11 1.13284e-11 0.610066 
3.58097e-11 4.66341e-11 0.410066 
4e-11 5.4008e-11 0.410066 
4e-11 1.46332e-11 0.610066 
3.2051e-11 1.19798e-11 0.610066 
3.16148e-11 4.08362e-11 0.410066 
3e-11 4.49898e-11 0.410066 
3e-11 1.611e-11 0.610066 
2.58558e-11 1.3276e-11 0.610066 
2.57542e-11 3.26381e-11 0.410066 
3e-11 4.29869e-11 0.410066 
3e-11 1.5749e-11 0.610066 
2.53138e-11 1.34103e-11 0.610066 
2.44711e-11 3.2514e-11 0.410066 
2e-11 2.82944e-11 0.410066 
2e-11 1.06169e-11 0.610066 
1.66832e-11 8.22661e-12 0.610066 
1.59333e-11 1.91738e-11 0.410066 
2e-11 2.7142e-11 0.410066 
2e-11 9.92048e-12 0.610066 
1.62248e-11 8.41677e-12 0.610066 
1.5866e-11 2.06217e-11 0.410066 
1e-11 1.3255e-11 0.410066 
1e-11 5.90127e-12 0.610066 
8.24365e-12 4.42268e-12 0.610066 
7.72609e-12 7.91124e-12 0.410066 
1e-11 1.05851e-11 0.410066 
1e-11 5.69391e-12 0.610066 
7.81541e-12 5.17458e-12 0.610066 
7.77559e-12 8.00211e-12 0.410066 
-1.68628e-21 1.765e-11 0.410066 
-1.00075e-21 4.886e-12 0.610066 
2.00706e-13 4.40649e-12 0.610066 
-2.51277e-14 1.62718e-11 0.410066 
-3.27063e-12 -2.08146e-11 0.410066 
-4.37463e-12 -3.08746e-12 0.610066 
7.65936e-13 -3.94634e-12 0.610066 
9.52595e-13 -2.00816e-11 0.410066 
3.58097e-11 4.1321e-11 0.410066 
3.4724e-11 1.0228e-11 0.610066 
8.36863e-12 8.9596e-12 0.610066 
7.64104e-12 3.90364e-11 0.410066 
3.16148e-11 3.83993e-11 0.410066 
3.2051e-11 1.20523e-11 0.610066 