# vtk DataFile Version 3.0
vtk output
ASCII
DATASET UNSTRUCTURED_GRID
POINTS 3504 float
9.37524	8.73136	0	
8.75	8.58834	0	
9.1209	8.27443	0	
2.62476	3.26864	0	
3.25	3.41166	0	
2.87919	3.72567	0	
6.75	1.5	0	
6.375	1.25	0	
6.81214	0.972955	0	
5.25	10.5	0	
5.625	10.75	0	
5.18786	11.027	0	
1.85045	1.35783	0	
1.69569	1.8874	0	
1.36384	1.3789	0	
10.1495	10.6422	0	
10.3043	10.1126	0	
10.6362	10.6211	0	
0.441894	4.21095	0	
0.909244	3.85868	0	
0.819813	4.43168	0	
11.5581	7.78905	0	
11.0908	8.14132	0	
11.1802	7.56832	0	
1.36384	1.3789	0	
1.69569	1.8874	0	
1.1945	1.88162	0	
10.6362	10.6211	0	
10.3043	10.1126	0	
10.8055	10.1184	0	
9	9	0	
8.75	8.58834	0	
9.37524	8.73136	0	
3	3	0	
3.25	3.41166	0	
2.62476	3.26864	0	
1.34548	3.74096	0	
1.44039	3.22981	0	
1.72591	3.65921	0	
10.6545	8.25904	0	
10.5596	8.77019	0	
10.2741	8.34079	0	
2.81957	1.31737	0	
2.56656	1.81417	0	
2.33543	1.33737	0	
9.18043	10.6826	0	
9.43344	10.1858	0	
9.66457	10.6626	0	
2.56656	1.81417	0	
2.81957	1.31737	0	
3.07339	1.72552	0	
9.43344	10.1858	0	
9.18043	10.6826	0	
8.92661	10.2745	0	
3.77844	11.5369	0	
3.4335	11.0699	0	
3.91364	11.0266	0	
8.22156	0.463092	0	
8.5665	0.930072	0	
8.08636	0.973355	0	
1.44039	3.22981	0	
1.34548	3.74096	0	
0.975292	3.4186	0	
10.5596	8.77019	0	
10.6545	8.25904	0	
11.0247	8.5814	0	
0.909244	3.85868	0	
0.441894	4.21095	0	
0.423927	3.72025	0	
11.0908	8.14132	0	
11.5581	7.78905	0	
11.5761	8.27975	0	
0.515247	3.25249	0	
0.964209	2.93026	0	
0.975292	3.4186	0	
11.4848	8.74751	0	
11.0358	9.06974	0	
11.0247	8.5814	0	
5.19375	11.559	0	
4.74219	11.2353	0	
5.18786	11.027	0	
6.80625	0.441027	0	
7.25781	0.764652	0	
6.81214	0.972955	0	
8.21439	10.7045	0	
7.94792	10.2758	0	
8.44965	10.3445	0	
3.78561	1.29551	0	
4.05208	1.72422	0	
3.55035	1.6555	0	
0.515247	3.25249	0	
0.975292	3.4186	0	
0.705927	3.5625	0	
11.4848	8.74751	0	
11.0247	8.5814	0	
11.2941	8.4375	0	
1.44039	3.22981	0	
1.83334	3.31312	0	
1.72591	3.65921	0	
10.5596	8.77019	0	
10.1667	8.68688	0	
10.2741	8.34079	0	
7.94792	10.2758	0	
8.21439	10.7045	0	
7.8056	10.755	0	
4.05208	1.72422	0	
3.78561	1.29551	0	
4.1944	1.24503	0	
1.278	0.451757	0	
1.09508	0.931645	0	
0.762263	0.502575	0	
10.722	11.5482	0	
10.9049	11.0684	0	
11.2377	11.4974	0	
0.436153	10.7318	0	
0.897918	10.4512	0	
0.812338	10.9992	0	
11.5638	1.26819	0	
11.1021	1.54877	0	
11.1877	1.00076	0	
0.964209	2.93026	0	
0.515247	3.25249	0	
0.488993	2.71456	0	
11.0358	9.06974	0	
11.4848	8.74751	0	
11.511	9.28544	0	
10.3201	4.12958	0	
9.70416	4.10915	0	
10.026	3.70057	0	
1.67992	7.87042	0	
2.29584	7.89085	0	
1.97403	8.29943	0	
9.70416	4.10915	0	
9.14288	4.31781	0	
9.2966	3.83515	0	
2.29584	7.89085	0	
2.85712	7.68219	0	
2.7034	8.16485	0	
7.18582	1.26783	0	
6.75	1.5	0	
6.81214	0.972955	0	
4.81418	10.7322	0	
5.25	10.5	0	
5.18786	11.027	0	
7.6301	1.08531	0	
7.18582	1.26783	0	
7.25781	0.764652	0	
4.3699	10.9147	0	
4.81418	10.7322	0	
4.74219	11.2353	0	
3.4335	11.0699	0	
3.77844	11.5369	0	
3.23101	11.5395	0	
8.5665	0.930072	0	
8.22156	0.463092	0	
8.76899	0.460521	0	
0.762263	0.502575	0	
1.09508	0.931645	0	
0.703305	0.973132	0	
11.2377	11.4974	0	
10.9049	11.0684	0	
11.2967	11.0269	0	
1.58989	0.947466	0	
1.09508	0.931645	0	
1.278	0.451757	0	
10.4101	11.0525	0	
10.9049	11.0684	0	
10.722	11.5482	0	
6.81214	0.972955	0	
6.375	1.25	0	
6.40509	0.756312	0	
5.18786	11.027	0	
5.625	10.75	0	
5.59491	11.2437	0	
5.24241	0.422233	0	
5.53462	0.795065	0	
4.95571	0.874051	0	
6.75759	11.5778	0	
6.46538	11.2049	0	
7.04429	11.1259	0	
1.77575	0.457563	0	
1.58989	0.947466	0	
1.278	0.451757	0	
10.2243	11.5424	0	
10.4101	11.0525	0	
10.722	11.5482	0	
0.897918	10.4512	0	
0.436153	10.7318	0	
0.432872	10.2502	0	
11.1021	1.54877	0	
11.5638	1.26819	0	
11.5671	1.74976	0	
7.25781	0.764652	0	
7.18582	1.26783	0	
6.81214	0.972955	0	
4.74219	11.2353	0	
4.81418	10.7322	0	
5.18786	11.027	0	
4.74219	11.2353	0	
5.19375	11.559	0	
4.68792	11.6569	0	
7.25781	0.764652	0	
6.80625	0.441027	0	
7.31208	0.343131	0	
0	3	0	
0	2.5	0	
0.488993	2.71456	0	
12	9	0	
12	9.5	0	
11.511	9.28544	0	
3.77516	7.48951	0	
4.26051	7.43129	0	
4.01911	7.855	0	
0.515247	3.25249	0	
0	3	0	
0.488993	2.71456	0	
11.4848	8.74751	0	
12	9	0	
11.511	9.28544	0	
3.03713	8.50604	0	
3	9	0	
2.59572	8.62093	0	
8.96287	3.49396	0	
9	3	0	
9.40428	3.37907	0	
2.07375	0.925107	0	
1.77575	0.457563	0	
2.28084	0.462581	0	
9.92625	11.0749	0	
10.2243	11.5424	0	
9.71916	11.5374	0	
3.77844	11.5369	0	
3.91364	11.0266	0	
4.29261	11.3608	0	
8.22156	0.463092	0	
8.08636	0.973355	0	
7.70739	0.639177	0	
10	7.5	0	
10.281	7.87777	0	
9.77488	7.87345	0	
2	4.5	0	
1.71898	4.12223	0	
2.22512	4.12655	0	
3.15548	8.01766	0	
3.28977	7.55171	0	
3.57624	7.90086	0	
1.77575	0.457563	0	
2.07375	0.925107	0	
1.58989	0.947466	0	
10.2243	11.5424	0	
9.92625	11.0749	0	
10.4101	11.0525	0	
10.8055	10.1184	0	
11.041	9.62545	0	
11.2138	10.0748	0	
1.1945	1.88162	0	
0.959013	2.37455	0	
0.786193	1.92522	0	
11.041	9.62545	0	
10.8055	10.1184	0	
10.6158	9.75351	0	
0.959013	2.37455	0	
1.1945	1.88162	0	
1.38417	2.24649	0	
10.4635	7.42658	0	
10.8817	7.21353	0	
10.7589	7.79131	0	
1.53647	4.57342	0	
1.11832	4.78647	0	
1.24111	4.20869	0	
4.95571	0.874051	0	
5.53462	0.795065	0	
5.25248	1.15003	0	
7.04429	11.1259	0	
6.46538	11.2049	0	
6.74752	10.85	0	
11.567	2.25	0	
11.5711	2.71322	0	
11.1304	2.45174	0	
0.433013	9.75	0	
0.428992	9.28697	0	
0.869637	9.54828	0	
10.3201	4.12958	0	
10	4.5	0	
9.70416	4.10915	0	
1.67992	7.87042	0	
2	7.5	0	
2.29584	7.89085	0	
10.4635	4.57342	0	
10.3201	4.12958	0	
10.8198	4.32736	0	
1.53647	7.42658	0	
1.67992	7.87042	0	
1.17991	7.67296	0	
9.53647	4.57342	0	
9.14288	4.31781	0	
9.70416	4.10915	0	
2.46353	7.42658	0	
2.85712	7.68219	0	
2.29584	7.89085	0	
1.77575	0.457563	0	
2	0	0	
2.28084	0.462581	0	
10.2243	11.5424	0	
10	12	0	
9.71916	11.5374	0	
2.59572	8.62093	0	
3	9	0	
2.51493	9.06911	0	
9.40428	3.37907	0	
9	3	0	
9.48507	2.93089	0	
4.18949	8.25512	0	
4.74906	8.29978	0	
4.30314	8.65409	0	
4.30314	8.65409	0	
4.74906	8.29978	0	
4.76044	8.70417	0	
7.74823	8.14603	0	
7.73869	8.56245	0	
7.29837	8.20566	0	
7.73869	8.56245	0	
7.16762	8.62235	0	
7.29837	8.20566	0	
1.36384	1.3789	0	
1.1945	1.88162	0	
0.865981	1.4238	0	
10.6362	10.6211	0	
10.8055	10.1184	0	
11.134	10.5762	0	
0.488993	2.71456	0	
0	2.5	0	
0.482269	2.22476	0	
11.511	9.28544	0	
12	9.5	0	
11.5177	9.77524	0	
8.85119	3.98401	0	
9.14288	4.31781	0	
8.72322	4.44094	0	
9.77488	7.87345	0	
10.281	7.87777	0	
9.95083	8.19353	0	
2.22512	4.12655	0	
1.71898	4.12223	0	
2.04917	3.80648	0	
11.0908	8.14132	0	
10.7589	7.79131	0	
11.1802	7.56832	0	
0.909244	3.85868	0	
1.24111	4.20869	0	
0.819813	4.43168	0	
10.7589	7.79131	0	
10.8817	7.21353	0	
11.1802	7.56832	0	
1.24111	4.20869	0	
1.11832	4.78647	0	
0.819813	4.43168	0	
2.85712	7.68219	0	
3.28977	7.55171	0	
3.15548	8.01766	0	
2	0	0	
2.5	0	0	
2.28084	0.462581	0	
10	12	0	
9.5	12	0	
9.71916	11.5374	0	
11.6039	4.76277	0	
11.2135	5.11832	0	
11.2126	4.5414	0	
0.396109	7.2373	0	
0.786475	6.88168	0	
0.787256	7.45891	0	
0	2.5	0	
0	2	0	
0.482269	2.22476	0	
12	9.5	0	
12	10	0	
11.5177	9.77524	0	
3.57624	7.90086	0	
3.77516	7.48951	0	
4.01911	7.855	0	
11.2135	5.11832	0	
10.8817	4.78647	0	
11.2126	4.5414	0	
0.786475	6.88168	0	
1.11832	7.21353	0	
0.787256	7.45891	0	
10.8198	4.32736	0	
10.3201	4.12958	0	
10.737	3.96301	0	
1.17991	7.67296	0	
1.67992	7.87042	0	
1.26301	8.03699	0	
3.25	3.41166	0	
3.75291	3.71723	0	
3.31445	3.83331	0	
4.29261	11.3608	0	
4.74219	11.2353	0	
4.68792	11.6569	0	
7.70739	0.639177	0	
7.25781	0.764652	0	
7.31208	0.343131	0	
8.75	8.58834	0	
8.24709	8.28351	0	
8.68564	8.16701	0	
7.04429	11.1259	0	
7.10292	10.669	0	
7.39823	10.832	0	
4.95571	0.874051	0	
4.89708	1.33103	0	
4.60177	1.16799	0	
7.94792	10.2758	0	
8.2972	9.92457	0	
8.44965	10.3445	0	
4.05208	1.72422	0	
3.7028	2.07543	0	
3.55035	1.6555	0	
11.134	10.5762	0	
10.8055	10.1184	0	
11.2138	10.0748	0	
0.865981	1.4238	0	
1.1945	1.88162	0	
0.786193	1.92522	0	
0.897918	10.4512	0	
1.24328	10.8279	0	
0.812338	10.9992	0	
11.1021	1.54877	0	
10.7567	1.17212	0	
11.1877	1.00076	0	
3.5	12	0	
3	12	0	
3.23101	11.5395	0	
8.5	0	0	
9	0	0	
8.76899	0.460521	0	
2.5	0	0	
3	0	0	
2.77608	0.45159	0	
9.5	12	0	
9	12	0	
9.22392	11.5484	0	
7.49361	10.452	0	
7.94792	10.2758	0	
7.8056	10.755	0	
4.50639	1.54804	0	
4.05208	1.72422	0	
4.1944	1.24503	0	
7.54471	11.1582	0	
7.04429	11.1259	0	
7.39823	10.832	0	
4.45529	0.841784	0	
4.95571	0.874051	0	
4.60177	1.16799	0	
4.29261	11.3608	0	
4.68792	11.6569	0	
4.25047	11.7331	0	
7.70739	0.639177	0	
7.31208	0.343131	0	
7.74953	0.266937	0	
3.23101	11.5395	0	
2.73291	11.5492	0	
2.94419	11.1055	0	
8.76899	0.460521	0	
9.26709	0.450847	0	
9.05581	0.894492	0	
3.21353	5.11832	0	
2.88168	4.78647	0	
3.45852	4.84439	0	
8.78647	6.88168	0	
9.11832	7.21353	0	
8.54148	7.15561	0	
2.28084	0.462581	0	
2.5	0	0	
2.77608	0.45159	0	
9.71916	11.5374	0	
9.5	12	0	
9.22392	11.5484	0	
2.88168	7.21353	0	
3.21353	6.88168	0	
3.45765	7.14906	0	
9.11832	4.78647	0	
8.78647	5.11832	0	
8.54196	4.848	0	
8.85119	3.98401	0	
8.72322	4.44094	0	
8.44235	4.1675	0	
11.5708	10.2786	0	
11.134	10.5762	0	
11.2138	10.0748	0	
0.429197	1.72138	0	
0.865981	1.4238	0	
0.786193	1.92522	0	
2.33543	1.33737	0	
2.56656	1.81417	0	
2.11815	1.70743	0	
9.66457	10.6626	0	
9.43344	10.1858	0	
9.88185	10.2926	0	
11.1304	2.45174	0	
11.5711	2.71322	0	
11.2395	2.89678	0	
0.869637	9.54828	0	
0.428992	9.28697	0	
0.759003	9.10481	0	
2.62476	3.26864	0	
2.87919	3.72567	0	
2.42059	3.73283	0	
9.37524	8.73136	0	
9.1209	8.27443	0	
9.57942	8.26719	0	
3.75291	3.71723	0	
3.25	3.41166	0	
3.75	3.31238	0	
2.88168	4.78647	0	
3.27659	4.48265	0	
3.45852	4.84439	0	
9.11832	7.21353	0	
8.72348	7.51752	0	
8.54148	7.15561	0	
8.24709	8.28351	0	
8.75	8.58834	0	
8.25	8.68814	0	
0.865981	1.4238	0	
0.429197	1.72138	0	
0.414393	1.25	0	
11.134	10.5762	0	
11.5708	10.2786	0	
11.5856	10.75	0	
8.72322	4.44094	0	
9.11832	4.78647	0	
8.54196	4.848	0	
3.27197	0.448831	0	
3.76807	0.438143	0	
3.53723	0.874729	0	
8.72803	11.5512	0	
8.23193	11.5619	0	
8.46277	11.1253	0	
3.28977	7.55171	0	
2.88168	7.21353	0	
3.45765	7.14906	0	
1.34548	3.74096	0	
0.909244	3.85868	0	
0.975292	3.4186	0	
10.6545	8.25904	0	
11.0908	8.14132	0	
[...]
CELL_DATA 1168
POINT_DATA 3504
SCALARS Pressure float 
LOOKUP_TABLE default
8.89987 8.89987 8.89987 1.10024 1.10024 1.10024 0.431513 0.431513 0.431513 9.56845 9.56845 9.56845 0.904038 0.904038 0.904038 9.09603 9.09603 9.09603 1.08942 1.08942 1.08942 8.91065 8.91065 8.91065 0.912407 0.912407 0.912407 9.08766 9.08766 9.08766 8.90789 8.90789 8.90789 1.09221 1.09221 1.09221 0.969476 0.969476 0.969476 9.0306 9.0306 9.0306 0.871708 0.871708 0.871708 9.12836 9.12836 9.12836 0.852937 0.852937 0.852937 9.14713 9.14713 9.14713 9.22635 9.22635 9.22635 0.773586 0.773586 0.773586 0.992315 0.992315 0.992315 9.00776 9.00776 9.00776 1.01712 1.01712 1.01712 8.98295 8.98295 8.98295 0.975397 0.975397 0.975397 9.02468 9.02468 9.02468 9.52719 9.52719 9.52719 0.472772 0.472772 0.472772 9.22421 9.22421 9.22421 0.775845 0.775845 0.775845 0.978485 0.978485 0.978485 9.02159 9.02159 9.02159 0.985206 0.985206 0.985206 9.01487 9.01487 9.01487 9.23265 9.23265 9.23265 0.767406 0.767406 0.767406 0.905736 0.905736 0.905736 9.09433 9.09433 9.09433 9.09298 9.09298 9.09298 0.906944 0.906944 0.906944 0.953182 0.953182 0.953182 9.04689 9.04689 9.04689 0.985059 0.985059 0.985059 9.01492 9.01492 9.01492 1.05376 1.05376 1.05376 8.94621 8.94621 8.94621 0.549437 0.549437 0.549437 9.45052 9.45052 9.45052 0.61647 0.61647 0.61647 9.38348 9.38348 9.38348 9.1952 9.1952 9.1952 0.804737 0.804737 0.804737 0.911822 0.911822 0.911822 9.08825 9.08825 9.08825 0.911428 0.911428 0.911428 9.08864 9.08864 9.08864 0.323925 0.323925 0.323925 9.67605 9.67605 9.67605 0.374098 0.374098 0.374098 9.62593 9.62593 9.62593 0.901962 0.901962 0.901962 9.09811 9.09811 9.09811 9.08528 9.08528 9.08528 0.914641 0.914641 0.914641 0.534353 0.534353 0.534353 9.46561 9.46561 9.46561 9.45463 9.45463 9.45463 0.54533 0.54533 0.54533 0.940815 0.940815 0.940815 9.05926 9.05926 9.05926 8.82135 8.82135 8.82135 0.949068 0.949068 0.949068 9.05101 9.05101 9.05101 8.92792 8.92792 8.92792 1.0719 1.0719 1.0719 0.889809 0.889809 0.889809 9.11026 9.11026 9.11026 9.24489 9.24489 9.24489 0.755053 0.755053 0.755053 9.05419 9.05419 9.05419 0.94589 0.94589 0.94589 8.84088 8.84088 8.84088 0.903195 0.903195 0.903195 9.09688 9.09688 9.09688 9.0782 9.0782 9.0782 0.921868 0.921868 0.921868 9.07614 9.07614 9.07614 0.923936 0.923936 0.923936 9.02485 9.02485 9.02485 0.975226 0.975226 0.975226 0.40296 0.40296 0.40296 9.59707 9.59707 9.59707 0.936943 0.936943 0.936943 9.06299 9.06299 9.06299 0.952528 0.952528 0.952528 9.04743 9.04743 9.04743 0.942896 0.942896 0.942896 9.05704 9.05704 9.05704 1.03759 1.03759 1.03759 8.96262 8.96262 8.96262 0.909421 0.909421 0.909421 9.09065 9.09065 9.09065 8.99713 8.99713 8.99713 1.00252 1.00252 1.00252 8.8271 8.8271 8.8271 8.82035 8.82035 8.82035 8.83313 8.83313 8.83313 8.82353 8.82353 8.82353 0.909509 0.909509 0.909509 9.09056 9.09056 9.09056 0.924647 0.924647 0.924647 9.07543 9.07543 9.07543 1.11282 1.11282 1.11282 9.01731 9.01731 9.01731 0.982775 0.982775 0.982775 8.99008 8.99008 8.99008 1.00999 1.00999 1.00999 8.95302 8.95302 8.95302 1.04705 1.04705 1.04705 8.88545 8.88545 8.88545 0.890456 0.890456 0.890456 9.10961 9.10961 9.10961 1.35131 1.35131 1.35131 8.64863 8.64863 8.64863 0.921352 0.921352 0.921352 9.07872 9.07872 9.07872 8.80853 8.80853 8.80853 1.14105 1.14105 1.14105 8.85884 8.85884 8.85884 0.980218 0.980218 0.980218 9.01978 9.01978 9.01978 1.1617 1.1617 1.1617 9.37252 9.37252 9.37252 0.627432 0.627432 0.627432 8.83838 8.83838 8.83838 9.40431 9.40431 9.40431 0.595731 0.595731 0.595731 9.19287 9.19287 9.19287 0.807192 0.807192 0.807192 9.08432 9.08432 9.08432 0.915755 0.915755 0.915755 9.08764 9.08764 9.08764 0.912284 0.912284 0.912284 9.16787 9.16787 9.16787 0.83206 0.83206 0.83206 0.864562 0.864562 0.864562 9.1355 9.1355 9.1355 9.2752 9.2752 9.2752 0.724859 0.724859 0.724859 9.37129 9.37129 9.37129 0.628756 0.628756 0.628756 9.29859 9.29859 9.29859 0.70136 0.70136 0.70136 9.15269 9.15269 9.15269 0.847237 0.847237 0.847237 1.34616 1.34616 1.34616 8.65404 8.65404 8.65404 0.888796 0.888796 0.888796 9.11127 9.11127 9.11127 8.6511 8.6511 8.6511 1.34722 1.34722 1.34722 1.16282 1.16282 1.16282 9.09142 9.09142 9.09142 0.908651 0.908651 0.908651 0.881986 0.881986 0.881986 9.11808 9.11808 9.11808 0.944621 0.944621 0.944621 9.05536 9.05536 9.05536 1.04839 1.04839 1.04839 8.95171 8.95171 8.95171 1.1789 1.1789 1.1789 1.16726 1.16726 1.16726 8.83288 8.83288 8.83288 8.82115 8.82115 8.82115 0.910312 0.910312 0.910312 9.08976 9.08976 9.08976 1.16463 1.16463 1.16463 0.795517 0.795517 0.795517 9.20454 9.20454 9.20454 8.83358 8.83358 8.83358 0.981494 0.981494 0.981494 9.01858 9.01858 9.01858 9.1805 9.1805 9.1805 0.819434 0.819434 0.819434 0.867288 0.867288 0.867288 9.13278 9.13278 9.13278 1.02826 1.02826 1.02826 8.97183 8.97183 8.97183 0.821758 0.821758 0.821758 9.17831 9.17831 9.17831 9.1375 9.1375 9.1375 0.862435 0.862435 0.862435 1.0552 1.0552 1.0552 8.94489 8.94489 8.94489 0.901931 0.901931 0.901931 9.09814 9.09814 9.09814 0.830872 0.830872 0.830872 9.16907 9.16907 9.16907 0.677364 0.677364 0.677364 9.32258 9.32258 9.32258 8.84676 8.84676 8.84676 9.13377 9.13377 9.13377 0.866157 0.866157 0.866157 1.09451 1.09451 1.09451 9.17175 9.17175 9.17175 0.828186 0.828186 0.828186 9.83174 9.83174 9.83174 0.168233 0.168233 0.168233 8.90559 8.90559 8.90559 9.30303 9.30303 9.30303 0.696917 0.696917 0.696917 9.09657 9.09657 9.09657 0.903499 0.903499 0.903499 9.12335 9.12335 9.12335 0.876582 0.876582 0.876582 0.907713 0.907713 0.907713 9.09236 9.09236 9.09236 0.988838 0.988838 0.988838 9.01111 9.01111 9.01111 0.935223 0.935223 0.935223 9.06459 9.06459 9.06459 0.817091 0.817091 0.817091 9.18297 9.18297 9.18297 1.11515 1.11515 1.11515 8.88441 8.88441 8.88441 0.847399 0.847399 0.847399 9.15255 9.15255 9.15255 1.17358 1.17358 1.17358 8.82675 8.82675 8.82675 0.767085 0.767085 0.767085 9.23297 9.23297 9.23297 9.09209 9.09209 9.09209 0.90783 0.90783 0.90783 0.772575 0.772575 0.772575 9.22748 9.22748 9.22748 1.36024 1.36024 1.36024 8.64006 8.64006 8.64006 9.08602 9.08602 9.08602 0.913898 0.913898 0.913898 1.12943 1.12943 1.12943 8.87064 8.87064 8.87064 8.78879 8.78879 8.78879 1.21135 1.21135 1.21135 7.41718 7.41718 7.41718 2.63181 2.63181 2.63181 2.58455 2.58455 2.58455 7.36822 7.36822 7.36822 2.63389 2.63389 2.63389 7.41576 7.41576 7.41576 2.58483 2.58483 2.58483 7.36601 7.36601 7.36601 0.820288 0.820288 0.820288 9.17978 9.17978 9.17978 0.0725866 0.0725866 0.0725866 9.92741 9.92741 9.92741 1.36015 1.36015 1.36015 8.81225 8.81225 8.81225 1.18848 1.18848 1.18848 0.72555 0.72555 0.72555 9.27451 9.27451 9.27451 0.493288 0.493288 0.493288 9.50675 9.50675 9.50675 1.17068 1.17068 1.17068 0.858076 0.858076 0.858076 9.14199 9.14199 9.14199 1.17002 1.17002 1.17002 8.84422 8.84422 8.84422 1.15585 1.15585 1.15585 1.17729 1.17729 1.17729 9.23097 9.23097 9.23097 0.769087 0.769087 0.769087 1.17411 1.17411 1.17411 0.737655 0.737655 0.737655 9.2624 9.2624 9.2624 0.77815 0.77815 0.77815 9.22191 9.22191 9.22191 8.97834 8.97834 8.97834 1.02174 1.02174 1.02174 8.97925 8.97925 8.97925 8.82932 8.82932 8.82932 1.16759 1.16759 1.16759 8.83145 8.83145 8.83145 8.82764 8.82764 8.82764 8.81398 8.81398 8.81398 0.0983159 0.0983159 0.0983159 9.90168 9.90168 9.90168 8.83257 8.83257 8.83257 8.83287 8.83287 8.83287 0.790341 0.790341 0.790341 9.20972 9.20972 9.20972 0.904335 0.904335 0.904335 9.09558 9.09558 9.09558 0.893348 0.893348 0.893348 9.10658 9.10658 9.10658 0.971607 0.971607 0.971607 9.66985 9.66985 9.66985 0.330118 0.330118 0.330118 1.16799 1.16799 1.16799 1.16876 1.16876 1.16876 8.96116 8.96116 8.96116 1.16722 1.16722 1.16722 8.83266 8.83266 8.83266 1.18821 1.18821 1.18821 1.16934 1.16934 1.16934 1.15074 1.15074 1.15074 8.84916 8.84916 8.84916 8.83215 8.83215 8.83215 0.476158 0.476158 0.476158 9.52388 9.52388 9.52388 8.83105 8.83105 8.83105 1.16726 1.16726 1.16726 1.09678 1.09678 1.09678 8.90313 8.90313 8.90313 0.184061 0.184061 0.184061 9.81593 9.81593 9.81593 1.16767 1.16767 1.16767 8.83334 8.83334 8.83334 1.17131 1.17131 1.17131 7.34018 7.34018 7.34018 7.30139 7.30139 7.30139 2.66137 2.66137 2.66137 2.69863 2.69863 2.69863 7.3391 7.3391 7.3391 2.70002 2.70002 2.70002 7.29988 7.29988 7.29988 2.66151 2.66151 2.66151 9.07241 9.07241 9.07241 0.927493 0.927493 0.927493 8.83158 8.83158 8.83158 8.82904 8.82904 8.82904 1.17317 1.17317 1.17317 1.07762 1.07762 1.07762 8.92266 8.92266 8.92266 9.31776 9.31776 9.31776 0.682188 0.682188 0.682188 0.571497 0.571497 0.571497 9.42855 9.42855 9.42855 0.905182 0.905182 0.905182 9.09474 9.09474 9.09474 0.845086 0.845086 0.845086 9.15498 9.15498 9.15498 8.61746 8.61746 8.61746 1.3826 1.3826 1.3826 1.17806 1.17806 1.17806 1.16725 1.16725 1.16725 0.976529 0.976529 0.976529 9.02338 9.02338 9.02338 1.1924 1.1924 1.1924 1.03883 1.03883 1.03883 9.1201 9.1201 9.1201 0.879833 0.879833 0.879833 0.836192 0.836192 0.836192 9.16374 9.16374 9.16374 9.10587 9.10587 9.10587 0.894046 0.894046 0.894046 1.02076 1.02076 1.02076 0.970481 0.970481 0.970481 9.0296 9.0296 9.0296 8.90709 8.90709 8.90709 1.09298 1.09298 1.09298 1.09949 1.09949 1.09949 8.90047 8.90047 8.90047 8.80767 8.80767 8.80767 9.08874 9.08874 9.08874 0.911181 0.911181 0.911181 0.754809 0.754809 0.754809 9.24524 9.24524 9.24524 0.0665685 0.0665685 0.0665685 9.93343 9.93343 9.93343 9.02846 9.02846 9.02846 0.834038 0.834038 0.834038 9.16603 9.16603 9.16603 0.166542 0.166542 0.166542 9.83347 9.83347 9.83347 1.39302 1.39302 1.39302 8.60687 8.60687 8.60687 9.08006 9.08006 9.08006 0.92001 0.92001 0.92001 0.784131 0.784131 0.784131 9.21581 9.21581 9.21581 0.868414 0.868414 0.868414 9.13151 9.13151 9.13151 8.80362 8.80362 8.80362 1.19656 1.19656 1.19656 9.05063 9.05063 9.05063 0.949208 0.949208 0.949208 9.13034 9.13034 9.13034 0.869593 0.869593 0.869593 0.966772 0.966772 0.966772 9.0333 9.0333 9.0333 1.19648 1.19648 1.19648 9.07524 9.07524 9.07524 9.09199 9.09199 9.09199 0.908085 0.908085 0.908085 0.924679 0.924679 0.924679 0.970847 0.970847 0.970847 9.02907 9.02907 9.02907 9.03418 9.03418 9.03418 0.965778 0.965778 0.965778 8.99658 8.99658 8.99658 1.00349 1.00349 1.00349 1.16487 1.16487 1.16487 8.99473 8.99473 8.99473 9.30433 9.30433 9.30433 0.69572 0.69572 0.69572 1.17887 1.17887 1.17887 9.09348 9.09348 9.09348 9.17197 9.17197 9.17197 0.828095 0.828095 0.828095 0.906587 0.906587 0.906587 1.16399 1.16399 1.16399 8.83516 8.83516 8.83516 0.829099 0.829099 0.829099 9.17084 9.17084 9.17084 8.82148 8.82148 8.82148 8.83234 8.83234 8.83234 1.16537 1.16537 1.16537 1.19284 1.19284 1.19284 1.16468 1.16468 1.16468 0.945365 0.945365 0.945365 9.05453 9.05453 9.05453 1.00536 1.00536 1.00536 0.964595 0.964595 0.964595 9.03548 9.03548 9.03548 9.05793 9.05793 9.05793 0.941956 0.941956 0.941956 1.16231 1.16231 1.16231 8.83482 8.83482 8.83482 1.16502 1.16502 1.16502 0.912605 0.912605 0.912605 9.08747 9.08747 9.08747 9.1001 9.1001 9.1001 0.899817 0.899817 0.899817 9.30792 9.30792 9.30792 0.692134 0.692134 0.692134 0.85871 0.85871 0.85871 9.14122 9.14122 9.14122 8.83407 8.83407 8.83407 8.80726 8.80726 8.80726 9.08819 9.08819 9.08819 0.911731 0.911731 0.911731 9.07689 9.07689 9.07689 0.923032 0.923032 0.923032 8.83768 8.83768 8.83768 1.16505 1.16505 1.16505 8.83634 8.83634 8.83634 8.94981 8.94981 8.94981 1.1602 1.1602 1.1602 1.1793 1.1793 1.1793 1.16738 1.16738 1.16738 1.16525 1.16525 1.16525 1.16644 1.16644 1.16644 8.81906 8.81906 8.81906 8.81394 8.81394 8.81394 1.15614 1.15614 1.15614 8.83986 8.83986 8.83986 8.84001 8.84001 8.84001 9.08934 9.08934 9.08934 0.910583 0.910583 0.910583 8.84808 8.84808 8.84808 8.83538 8.83538 8.83538 8.83367 8.83367 8.83367 8.83504 8.83504 8.83504 1.16682 1.16682 1.16682 8.84366 8.84366 8.84366 8.83493 8.83493 8.83493 1.16708 1.16708 1.16708 8.8331 8.8331 8.8331 0.866443 0.866443 0.866443 9.13362 9.13362 9.13362 9.07775 9.07775 9.07775 0.922166 0.922166 0.922166 9.08439 9.08439 9.08439 0.915531 0.915531 0.915531 1.16608 1.16608 1.16608 8.85748 8.85748 8.85748 8.84391 8.84391 8.84391 0.903607 0.903607 0.903607 9.09646 9.09646 9.09646 8.83534 8.83534 8.83534 8.8339 8.8339 8.8339 9.09458 9.09458 9.09458 0.905336 0.905336 0.905336 1.14338 1.14338 1.14338 8.82157 8.82157 8.82157 1.15654 1.15654 1.15654 8.85664 8.85664 8.85664 8.8353 8.8353 8.8353 1.14371 1.14371 1.14371 9.08584 9.08584 9.08584 0.914085 0.914085 0.914085 0.890151 0.890151 0.890151 9.10992 9.10992 9.10992 0.899543 0.899543 0.899543 9.10038 9.10038 9.10038 1.16512 1.16512 1.16512 8.83511 8.83511 8.83511 8.83627 8.83627 8.83627 8.8249 8.8249 8.8249 8.8292 8.8292 8.8292 8.83267 8.83267 8.83267 1.04825 1.04825 1.04825 1.16525 1.16525 1.16525 1.16255 1.16255 1.16255 1.04813 1.04813 1.04813 1.19105 1.19105 1.19105 1.16738 1.16738 1.16738 1.18601 1.18601 1.18601 1.17783 1.17783 1.17783 1.17015 1.17015 1.17015 8.83775 8.83775 8.83775 8.83482 8.83482 8.83482 8.85618 8.85618 8.85618 8.95181 8.95181 8.95181 8.80946 8.80946 8.80946 1.16358 1.16358 1.16358 9.05195 9.05195 9.05195 0.948125 0.948125 0.948125 1.5071 1.5071 1.5071 8.4932 8.4932 8.4932 1.16017 1.16017 1.16017 1.16492 1.16492 1.16492 1.14189 1.14189 1.14189 9.10457 9.10457 9.10457 0.895351 0.895351 0.895351 8.85798 8.85798 8.85798 1.1418 1.1418 1.1418 8.83223 8.83223 8.83223 1.16797 1.16797 1.16797 0.942017 0.942017 0.942017 9.05791 9.05791 9.05791 1.16417 1.16417 1.16417 1.15142 1.15142 1.15142 9.01097 9.01097 9.01097 0.989111 0.989111 0.989111 0.880963 0.880963 0.880963 9.11896 9.11896 9.11896 0.904082 0.904082 0.904082 9.09599 9.09599 9.09599 1.50823 1.50823 1.50823 8.49309 8.49309 8.49309 8.84875 8.84875 8.84875 0.919333 0.919333 0.919333 9.08058 9.08058 9.08058 1.15112 1.15112 1.15112 0.853662 0.853662 0.853662 9.1464 9.1464 9.1464 0.878084 0.878084 0.878084 9.12198 9.12198 9.12198 1.17805 1.17805 1.17805 1.17921 1.17921 1.17921 0.940685 0.940685 0.940685 9.05939 9.05939 9.05939 8.89624 8.89624 8.89624 1.10387 1.10387 1.10387 9.04551 9.04551 9.04551 0.954443 0.954443 0.954443 8.82148 8.82148 8.82148 0.896731 0.896731 0.896731 9.10334 9.10334 9.10334 0.962076 0.962076 0.962076 9.03784 9.03784 9.03784 0.996881 0.996881 0.996881 9.00317 9.00317 9.00317 9.09032 9.09032 9.09032 0.909748 0.909748 0.909748 9.08623 9.08623 9.08623 0.913695 0.913695 0.913695 0.795686 0.795686 0.795686 9.20425 9.20425 9.20425 0.98434 0.98434 0.98434 9.0155 9.0155 9.0155 1.11855 1.11855 1.11855 0.968076 0.968076 0.968076 9.032 9.032 9.032 0.894473 0.894473 0.894473 9.1056 9.1056 9.1056 0.920387 0.920387 0.920387 9.07969 9.07969 9.07969 0.985546 0.985546 0.985546 9.01442 9.01442 9.01442 0.891293 0.891293 0.891293 9.10863 9.10863 9.10863 9.33665 9.33665 9.33665 0.663397 0.663397 0.663397 0.943296 0.943296 0.943296 9.0566 9.0566 9.0566 8.89107 8.89107 8.89107 0.954863 0.954863 0.954863 9.04521 9.04521 9.04521 8.81083 8.81083 8.81083 8.88158 8.88158 8.88158 9.09692 9.09692 9.09692 0.90315 0.90315 0.90315 0.841964 0.841964 0.841964 9.15799 9.15799 9.15799 9.05291 9.05291 9.05291 0.947166 0.947166 0.947166 0.824588 0.824588 0.824588 9.17535 9.17535 9.17535 0.911216 0.911216 0.911216 9.08871 9.08871 9.08871 0.808625 0.808625 0.808625 9.19143 9.19143 9.19143 1.16468 1.16468 1.16468 9.21658 9.21658 9.21658 0.783359 0.783359 0.783359 0.917112 0.917112 0.917112 9.08281 9.08281 9.08281 9.02807 9.02807 9.02807 0.972008 0.972008 0.972008 1.0932 1.0932 1.0932 8.90736 8.90736 8.90736 0.838548 0.838548 0.838548 9.16152 9.16152 9.16152 0.876457 0.876457 0.876457 9.12347 9.12347 9.12347 9.17971 9.17971 9.17971 0.820357 0.820357 0.820357 8.83541 8.83541 8.83541 0.908564 0.908564 0.908564 9.09136 9.09136 9.09136 9.11437 9.11437 9.11437 0.885695 0.885695 0.885695 1.10884 1.10884 1.10884 0.941321 0.941321 0.941321 9.05875 9.05875 9.05875 9.22243 9.22243 9.22243 0.777627 0.777627 0.777627 0.964586 0.964586 0.964586 9.03545 9.03545 9.03545 9.05907 9.05907 9.05907 0.941003 0.941003 0.941003 9.2831 9.2831 9.2831 0.716842 0.716842 0.716842 0.896649 0.896649 0.896649 9.10342 9.10342 9.10342 8.64275 8.64275 8.64275 0.916856 0.916856 0.916856 9.08306 9.08306 9.08306 9.10557 9.10557 9.10557 0.8945 0.8945 0.8945 9.19449 9.19449 9.19449 0.805452 0.805452 0.805452 0.707826 0.707826 0.707826 9.29223 9.29223 9.29223 0.92295 0.92295 0.92295 9.07696 9.07696 9.07696 0.960328 0.960328 0.960328 9.03975 9.03975 9.03975 0.982444 0.982444 0.982444 9.01732 9.01732 9.01732 9.08155 9.08155 9.08155 0.918524 0.918524 0.918524 0.912062 0.912062 0.912062 9.08786 9.08786 9.08786 0.898976 0.898976 0.898976 9.10109 9.10109 9.10109 0.920241 0.920241 0.920241 9.07983 9.07983 9.07983 9.16166 9.16166 9.16166 0.838408 0.838408 0.838408 9.05715 9.05715 9.05715 0.942922 0.942922 0.942922 8.82653 8.82653 8.82653 0.923898 0.923898 0.923898 9.07594 9.07594 9.07594 9.39274 9.39274 9.39274 0.607209 0.607209 0.607209 8.98506 8.98506 8.98506 1.01502 1.01502 1.01502 9.39805 9.39805 9.39805 0.601992 0.601992 0.601992 0.950941 0.950941 0.950941 9.04914 9.04914 9.04914 1.15171 1.15171 1.15171 0.907754 0.907754 0.907754 9.09217 9.09217 9.09217 1.22531 1.22531 1.22531 0.843384 0.843384 0.843384 9.15656 9.15656 9.15656 0.713148 0.713148 0.713148 9.28691 9.28691 9.28691 8.77481 8.77481 8.77481 0.897715 0.897715 0.897715 9.10221 9.10221 9.10221 0.818116 0.818116 0.818116 9.18182 9.18182 9.18182 0.920863 0.920863 0.920863 9.07921 9.07921 9.07921 0.849689 0.849689 0.849689 9.15037 9.15037 9.15037 1.1676 1.1676 1.1676 0.915184 0.915184 0.915184 9.08489 9.08489 9.08489 0.89052 0.89052 0.89052 9.10955 9.10955 9.10955 0.864096 0.864096 0.864096 9.13583 9.13583 9.13583 0.846007 0.846007 0.846007 9.15392 9.15392 9.15392 0.905344 0.905344 0.905344 9.09458 9.09458 9.09458 0.929373 0.929373 0.929373 9.07054 9.07054 9.07054 0.932815 0.932815 0.932815 9.06726 9.06726 9.06726 9.16113 9.16113 9.16113 0.838932 0.838932 0.838932 0.945476 0.945476 0.945476 9.05446 9.05446 9.05446 9.22968 9.22968 9.22968 0.770263 0.770263 0.770263 9.01392 9.01392 9.01392 0.986156 0.986156 0.986156 9.81344 9.81344 9.81344 0.186588 0.186588 0.186588 0.947221 0.947221 0.947221 9.0527 9.0527 9.0527 8.83032 8.83032 8.83032 9.19174 9.19174 9.19174 0.808325 0.808325 0.808325 0.97533 0.97533 0.97533 9.02475 9.02475 9.02475 9.1822 9.1822 9.1822 0.817858 0.817858 0.817858 0.947187 0.947187 0.947187 9.05289 9.05289 9.05289 9.23301 9.23301 9.23301 0.767051 0.767051 0.767051 0.911095 0.911095 0.911095 9.08898 9.08898 9.08898 0.926919 0.926919 0.926919 9.073 9.073 9.073 0.833524 0.833524 0.833524 9.16641 9.16641 9.16641 9.09298 9.09298 9.09298 0.906938 0.906938 0.906938 9.14128 9.14128 9.14128 0.858782 0.858782 0.858782 9.31203 9.31203 9.31203 0.687918 0.687918 0.687918 9.31337 9.31337 9.31337 0.686683 0.686683 0.686683 9.10778 9.10778 9.10778 0.892149 0.892149 0.892149 9.27911 9.27911 9.27911 0.720831 0.720831 0.720831 0.902589 0.902589 0.902589 9.09748 9.09748 9.09748 0.913315 0.913315 0.913315 9.0866 9.0866 9.0866 8.78055 8.78055 8.78055 9.88664 9.88664 9.88664 0.113359 0.113359 0.113359 9.10327 9.10327 9.10327 0.896656 0.896656 0.896656 9.02138 9.02138 9.02138 0.978538 0.978538 0.978538 1.17055 1.17055 1.17055 0.883368 0.883368 0.883368 9.11656 9.11656 9.11656 8.82957 8.82957 8.82957 0.855575 0.855575 0.855575 9.14436 9.14436 9.14436 9.13116 9.13116 9.13116 0.868903 0.868903 0.868903 9.10361 9.10361 9.10361 0.896319 0.896319 0.896319 9.46436 9.46436 9.46436 0.535603 0.535603 0.535603 9.11374 9.11374 9.11374 0.886186 0.886186 0.886186 1.16658 1.16658 1.16658 1.12993 1.12993 1.12993 0.863389 0.863389 0.863389 9.13666 9.13666 9.13666 8.87018 8.87018 8.87018 0.919782 0.919782 0.919782 9.08029 9.08029 9.08029 0.993498 0.993498 0.993498 9.00633 9.00633 9.00633 0.921981 0.921981 0.921981 9.07809 9.07809 9.07809 0.958829 0.958829 0.958829 9.04125 9.04125 9.04125 1.20424 1.20424 1.20424 8.79791 8.79791 8.79791 9.00824 9.00824 9.00824 0.991842 0.991842 0.991842 1.03606 1.03606 1.03606 8.96386 8.96386 8.96386 9.10071 9.10071 9.10071 0.899209 0.899209 0.899209 9.12991 9.12991 9.12991 0.870154 0.870154 0.870154 8.82123 8.82123 8.82123 0.0806415 0.0806415 0.0806415 9.91936 9.91936 9.91936 1.0102 1.0102 1.0102 8.98979 8.98979 8.98979 0.994768 0.994768 0.994768 9.00515 9.00515 9.00515 1.16911 1.16911 1.16911 8