# vtk DataFile Version 3.0
vtk output
ASCII
DATASET UNSTRUCTURED_GRID
POINTS 2604 float
1	0.9	0	
0.950709	0.828324	0	
1	0.8	0	
0.111979	0.746263	0	
0.118067	0.687768	0	
0.161334	0.735964	0	
0.781831	0.71978	0	
0.761203	0.67215	0	
0.803439	0.663975	0	
0.852197	0.113951	0	
0.852274	0.0461711	0	
0.88612	0.0868987	0	
0.917105	0.914602	0	
0.960437	0.945635	0	
0.9	1	0	
0.834101	0.219751	0	
0.860383	0.26147	0	
0.815275	0.258842	0	
0.526212	0.916658	0	
0.548189	0.871027	0	
0.58937	0.917164	0	
0.484252	0.835851	0	
0.486639	0.77807	0	
0.522589	0.796949	0	
1	0.1	0	
0.965602	0.16304	0	
0.947246	0.135645	0	
0.218988	0.81846	0	
0.260208	0.789431	0	
0.254949	0.840559	0	
0.803439	0.663975	0	
0.83345	0.689157	0	
0.781831	0.71978	0	
0.58937	0.917164	0	
0.548189	0.871027	0	
0.592959	0.859667	0	
0.441951	0.923689	0	
0.471857	0.953877	0	
0.401562	0.939541	0	
0.0737024	0.110002	0	
0.05	0.0481822	0	
0.140463	0.0742084	0	
0.551347	0.216132	0	
0.522671	0.188087	0	
0.579535	0.184155	0	
0.860383	0.26147	0	
0.874252	0.222163	0	
0.902499	0.259705	0	
1	0.1	0	
0.961921	0.0500857	0	
1	0	0	
0.902499	0.259705	0	
0.874252	0.222163	0	
0.918428	0.217136	0	
0.70085	0.326561	0	
0.675433	0.29516	0	
0.726388	0.288719	0	
0.311062	0.243322	0	
0.349734	0.230805	0	
0.354119	0.262857	0	
0.402695	0.0809751	0	
0.454159	0.0636577	0	
0.437699	0.103249	0	
0.579535	0.184155	0	
0.522671	0.188087	0	
0.545613	0.157103	0	
0.0581957	0.228872	0	
0	0.2	0	
0.0581957	0.185484	0	
0.330222	0.208634	0	
0.349734	0.230805	0	
0.311062	0.243322	0	
0.883976	0.38138	0	
0.927299	0.436697	0	
0.867521	0.429192	0	
0.720508	0.43859	0	
0.680304	0.412931	0	
0.725095	0.395715	0	
0.4	0	0	
0.454159	0.0636577	0	
0.402695	0.0809751	0	
0	0.4	0	
0.077859	0.416391	0	
0.0651809	0.456841	0	
0.185845	0.577856	0	
0.189586	0.534922	0	
0.227441	0.556701	0	
0.154867	0.778868	0	
0.166796	0.832974	0	
0.11218	0.808811	0	
1	0.9	0	
0.960437	0.945635	0	
0.935931	0.875511	0	
1	0.7	0	
0.918249	0.70556	0	
0.927563	0.6319	0	
1	1	0	
0.960437	0.945635	0	
1	0.9	0	
0.675433	0.29516	0	
0.697399	0.260207	0	
0.726388	0.288719	0	
0.616498	0.540666	0	
0.571348	0.553541	0	
0.578699	0.518011	0	
0.651307	0.446797	0	
0.671115	0.482098	0	
0.631464	0.480162	0	
0.313972	0.780164	0	
0.260208	0.789431	0	
0.280867	0.749606	0	
0.484252	0.835851	0	
0.455939	0.797186	0	
0.486639	0.77807	0	
0.455285	0.326895	0	
0.477149	0.292832	0	
0.502768	0.330452	0	
0.185845	0.577856	0	
0.227441	0.556701	0	
0.226204	0.597274	0	
0.354119	0.262857	0	
0.320684	0.286268	0	
0.311062	0.243322	0	
0.12498	0.130997	0	
0.0737024	0.110002	0	
0.140463	0.0742084	0	
0.244616	0.190678	0	
0.234621	0.138607	0	
0.282926	0.153298	0	
0.807833	0.500766	0	
0.77047	0.49815	0	
0.79526	0.455465	0	
0.288871	0.813507	0	
0.260208	0.789431	0	
0.313972	0.780164	0	
0.2	1	0	
0.260177	0.944352	0	
0.3	1	0	
0.283073	0.0957724	0	
0.220822	0.0715816	0	
0.3	0	0	
0.154867	0.778868	0	
0.188648	0.796494	0	
0.166796	0.832974	0	
0.815275	0.258842	0	
0.860383	0.26147	0	
0.841676	0.293542	0	
0.954543	0.246173	0	
0.934317	0.298166	0	
0.902499	0.259705	0	
0.25631	0.240348	0	
0.292041	0.201664	0	
0.311062	0.243322	0	
0.781831	0.71978	0	
0.83345	0.689157	0	
0.824469	0.725291	0	
0.502768	0.330452	0	
0.473315	0.359656	0	
0.455285	0.326895	0	
0.189586	0.534922	0	
0.230611	0.517653	0	
0.227441	0.556701	0	
0.254949	0.840559	0	
0.260208	0.789431	0	
0.288871	0.813507	0	
0.659761	0.203629	0	
0.616945	0.205202	0	
0.621836	0.1745	0	
0.548953	0.685128	0	
0.594859	0.693003	0	
0.556511	0.726508	0	
0.260177	0.944352	0	
0.314533	0.952312	0	
0.3	1	0	
0.631464	0.480162	0	
0.671115	0.482098	0	
0.649411	0.513339	0	
0.526212	0.916658	0	
0.54958	0.961918	0	
0.471857	0.953877	0	
0.725095	0.395715	0	
0.680304	0.412931	0	
0.691308	0.368034	0	
0.736932	0.516832	0	
0.713367	0.480787	0	
0.754431	0.465642	0	
1	0.5	0	
0.928788	0.499945	0	
0.927299	0.436697	0	
0	0.4	0	
0.0651809	0.456841	0	
0	0.5	0	
0.665345	0.167611	0	
0.659761	0.203629	0	
0.621836	0.1745	0	
0.834101	0.219751	0	
0.874252	0.222163	0	
0.860383	0.26147	0	
0.867521	0.429192	0	
0.883575	0.477789	0	
0.839146	0.466385	0	
0.599529	0.573056	0	
0.571348	0.553541	0	
0.616498	0.540666	0	
0.807833	0.500766	0	
0.79526	0.455465	0	
0.839146	0.466385	0	
0.567905	0.629795	0	
0.524733	0.622099	0	
0.566367	0.591267	0	
0.139698	0.316985	0	
0.0919868	0.299946	0	
0.120138	0.279088	0	
0.839146	0.466385	0	
0.832013	0.42885	0	
0.867521	0.429192	0	
0.104749	0.588366	0	
0.0656914	0.640462	0	
0.0562459	0.561534	0	
0.946904	0.763056	0	
0.950709	0.828324	0	
0.904316	0.794958	0	
0.757078	0.0694782	0	
0.698365	0.0639875	0	
0.7	0	0	
0.754431	0.465642	0	
0.77047	0.49815	0	
0.736932	0.516832	0	
0.512074	0.421417	0	
0.464286	0.400562	0	
0.507373	0.377078	0	
0.814046	0.0912601	0	
0.852274	0.0461711	0	
0.852197	0.113951	0	
0.146428	0.558325	0	
0.104749	0.588366	0	
0.107348	0.532274	0	
0.3	1	0	
0.314533	0.952312	0	
0.4	1	0	
0.578699	0.518011	0	
0.612242	0.507186	0	
0.616498	0.540666	0	
0.9	1	0	
0.827711	0.948078	0	
0.874805	0.924257	0	
0.152814	0.507191	0	
0.189586	0.534922	0	
0.146428	0.558325	0	
0.772975	0.171004	0	
0.813701	0.137611	0	
0.815275	0.180659	0	
0.205991	0.917768	0	
0.260177	0.944352	0	
0.2	1	0	
0.579535	0.0866621	0	
0.572875	0.0404911	0	
0.635507	0.0543198	0	
0.140463	0.0742084	0	
0.05	0.0481822	0	
0.1	0	0	
0.4	1	0	
0.471857	0.953877	0	
0.5	1	0	
0.524733	0.622099	0	
0.53077	0.578787	0	
0.566367	0.591267	0	
0.218988	0.81846	0	
0.222172	0.783449	0	
0.260208	0.789431	0	
1	0.7	0	
0.927563	0.6319	0	
1	0.6	0	
0.720508	0.43859	0	
0.68931	0.453423	0	
0.680304	0.412931	0	
0.935931	0.875511	0	
0.950709	0.828324	0	
1	0.9	0	
0.522589	0.796949	0	
0.522924	0.840554	0	
0.484252	0.835851	0	
0.201179	0.183493	0	
0.234621	0.138607	0	
0.244616	0.190678	0	
0.175112	0.13682	0	
0.220822	0.0715816	0	
0.234621	0.138607	0	
0.152814	0.409698	0	
0.140066	0.362181	0	
0.179864	0.378412	0	
0.92842	0.0965535	0	
0.961921	0.0500857	0	
1	0.1	0	
0.556511	0.726508	0	
0.594859	0.693003	0	
0.598811	0.736163	0	
0.736932	0.516832	0	
0.704824	0.556164	0	
0.69183	0.518078	0	
0.474498	0.443111	0	
0.464286	0.400562	0	
0.512074	0.421417	0	
0.244616	0.190678	0	
0.292041	0.201664	0	
0.25631	0.240348	0	
0.73167	0.904283	0	
0.77349	0.868295	0	
0.794192	0.913311	0	
0.927563	0.6319	0	
0.918249	0.70556	0	
0.877784	0.669514	0	
1	0.5	0	
0.927299	0.436697	0	
1	0.4	0	
0.79526	0.455465	0	
0.77047	0.49815	0	
0.754431	0.465642	0	
0.650978	0.374884	0	
0.613573	0.378818	0	
0.617217	0.340713	0	
1	0.3	0	
0.954543	0.246173	0	
1	0.2	0	
0.662572	0.335151	0	
0.650978	0.374884	0	
0.617217	0.340713	0	
0.282926	0.153298	0	
0.292041	0.201664	0	
0.244616	0.190678	0	
0.726388	0.288719	0	
0.735524	0.320821	0	
0.70085	0.326561	0	
0.74308	0.560858	0	
0.704824	0.556164	0	
0.736932	0.516832	0	
0.883976	0.38138	0	
0.931319	0.378884	0	
0.927299	0.436697	0	
0.195115	0.497536	0	
0.230611	0.517653	0	
0.189586	0.534922	0	
0.407107	0.464245	0	
0.368395	0.45778	0	
0.390541	0.420609	0	
0.739531	0.710125	0	
0.761203	0.67215	0	
0.781831	0.71978	0	
0.5	0	0	
0.454159	0.0636577	0	
0.4	0	0	
0.814046	0.0912601	0	
0.757078	0.0694782	0	
0.8	0	0	
0.317221	0.358997	0	
0.27907	0.346049	0	
0.29845	0.316286	0	
0.166796	0.832974	0	
0.116905	0.870631	0	
0.11218	0.808811	0	
0.2	0	0	
0.140463	0.0742084	0	
0.1	0	0	
0.8	0	0	
0.757078	0.0694782	0	
0.7	0	0	
0.390541	0.420609	0	
0.434093	0.432539	0	
0.407107	0.464245	0	
0.360236	0.3052	0	
0.332334	0.325899	0	
0.320684	0.286268	0	
0.227441	0.556701	0	
0.230611	0.517653	0	
0.26736	0.537219	0	
0.29845	0.316286	0	
0.332334	0.325899	0	
0.317221	0.358997	0	
0.394159	0.278148	0	
0.426146	0.244251	0	
0.436459	0.287803	0	
0.874805	0.924257	0	
0.827711	0.948078	0	
0.840882	0.897205	0	
0.770214	0.122776	0	
0.813701	0.137611	0	
0.772975	0.171004	0	
0.401562	0.939541	0	
0.471857	0.953877	0	
0.4	1	0	
0.356892	0.792673	0	
0.382678	0.766856	0	
0.399305	0.809347	0	
0.399305	0.809347	0	
0.382678	0.766856	0	
0.418578	0.781053	0	
0.134419	0.24627	0	
0.181424	0.224627	0	
0.180087	0.257745	0	
0.8	1	0	
0.827711	0.948078	0	
0.9	1	0	
0.507373	0.377078	0	
0.473315	0.359656	0	
0.502768	0.330452	0	
0.201179	0.183493	0	
0.166563	0.179927	0	
0.175112	0.13682	0	
0.347894	0.749895	0	
0.315427	0.741824	0	
0.341915	0.7075	0	
0.152814	0.507191	0	
0.146428	0.558325	0	
0.107348	0.532274	0	
0.635165	0.301745	0	
0.675433	0.29516	0	
0.662572	0.335151	0	
0.502768	0.330452	0	
0.477149	0.292832	0	
0.517425	0.286573	0	
0.26736	0.537219	0	
0.230611	0.517653	0	
0.267586	0.49873	0	
0.0651809	0.456841	0	
0.0695334	0.506158	0	
0	0.5	0	
0.185845	0.577856	0	
0.226204	0.597274	0	
0.188247	0.621731	0	
0.175112	0.13682	0	
0.234621	0.138607	0	
0.201179	0.183493	0	
0.74308	0.604247	0	
0.740336	0.641329	0	
0.698689	0.629477	0	
0.927299	0.436697	0	
0.931319	0.378884	0	
1	0.4	0	
0.0581957	0.185484	0	
0.0410089	0.148014	0	
0.0921181	0.158432	0	
0.402695	0.0809751	0	
0.342842	0.0683224	0	
0.4	0	0	
0.8	0	0	
0.852274	0.0461711	0	
0.814046	0.0912601	0	
0.44181	0.721857	0	
0.43145	0.682581	0	
0.474425	0.696912	0	
0.721703	0.669471	0	
0.761203	0.67215	0	
0.739531	0.710125	0	
0.3	0	0	
0.220822	0.0715816	0	
0.2	0	0	
0.732582	0.355799	0	
0.735524	0.320821	0	
0.773099	0.34327	0	
0.640661	0.135409	0	
0.693053	0.138941	0	
0.665345	0.167611	0	
0.360236	0.3052	0	
0.320684	0.286268	0	
0.354119	0.262857	0	
0.153244	0.207178	0	
0.181424	0.224627	0	
0.134419	0.24627	0	
0	0.2	0	
0.0410089	0.148014	0	
0.0581957	0.185484	0	
0.68931	0.453423	0	
0.671115	0.482098	0	
0.651307	0.446797	0	
0.483989	0.632234	0	
0.524733	0.622099	0	
0.508226	0.665785	0	
0.9	1	0	
0.960437	0.945635	0	
1	1	0	
0.288871	0.911	0	
0.314533	0.952312	0	
0.260177	0.944352	0	
0.341915	0.7075	0	
0.315427	0.741824	0	
0.297706	0.711277	0	
0.111979	0.746263	0	
0.0716768	0.70865	0	
0.118067	0.687768	0	
0.773099	0.34327	0	
0.735524	0.320821	0	
0.767066	0.30918	0	
0.6	1	0	
0.58937	0.917164	0	
0.673197	0.932371	0	
0.794192	0.913311	0	
0.77349	0.868295	0	
0.811106	0.87464	0	
0.282926	0.153298	0	
0.234621	0.138607	0	
0.283073	0.0957724	0	
0.852274	0.0461711	0	
0.908571	0.0556992	0	
0.88612	0.0868987	0	
0.399305	0.809347	0	
0.418578	0.781053	0	
[...]
CELL_DATA 868
POINT_DATA 2604
SCALARS Pressure float 
LOOKUP_TABLE default
7.61929 7.61929 7.61929 8.83174 8.83174 8.83174 6.71808 6.71808 6.71808 -0.124 -0.124 -0.124 9.82032 9.82032 9.82032 3.87983 3.87983 3.87983 9.96664 9.96664 9.96664 7.65549 7.65549 7.65549 1.84405 1.84405 1.84405 8.98439 8.98439 8.98439 6.62801 6.62801 6.62801 9.9617 9.9617 9.9617 10.075 10.075 10.075 -0.0154888 -0.0154888 -0.0154888 1.94823 1.94823 1.94823 3.77066 3.77066 3.77066 0.357035 0.357035 0.357035 3.85291 3.85291 3.85291 4.03614 4.03614 4.03614 1.30394 1.30394 1.30394 -0.130877 -0.130877 -0.130877 1.76626 1.76626 1.76626 2.47547 2.47547 2.47547 0.999581 0.999581 0.999581 5.40502 5.40502 5.40502 4.65399 4.65399 4.65399 -0.0792805 -0.0792805 -0.0792805 6.05713 6.05713 6.05713 6.98346 6.98346 6.98346 9.35514 9.35514 9.35514 9.03233 9.03233 9.03233 6.56044 6.56044 6.56044 9.5321 9.5321 9.5321 4.03142 4.03142 4.03142 5.79528 5.79528 5.79528 4.90799 4.90799 4.90799 7.40158 7.40158 7.40158 7.18325 7.18325 7.18325 3.87016 3.87016 3.87016 7.09297 7.09297 7.09297 1.36189 1.36189 1.36189 0.0309181 0.0309181 0.0309181 0.268019 0.268019 0.268019 4.86635 4.86635 4.86635 7.50072 7.50072 7.50072 9.96111 9.96111 9.96111 0.0383778 0.0383778 0.0383778 9.59532 9.59532 9.59532 3.90032 3.90032 3.90032 3.9179 3.9179 3.9179 0.544358 0.544358 0.544358 6.55417 6.55417 6.55417 4.19689 4.19689 4.19689 6.97553 6.97553 6.97553 8.17727 8.17727 8.17727 2.76454 2.76454 2.76454 6.82387 6.82387 6.82387 10.1339 10.1339 10.1339 5.02734 5.02734 5.02734 10.0373 10.0373 10.0373 4.53626 4.53626 4.53626 4.80862 4.80862 4.80862 5.418 5.418 5.418 6.43081 6.43081 6.43081 2.4035 2.4035 2.4035 3.66217 3.66217 3.66217 5.27732 5.27732 5.27732 5.88647 5.88647 5.88647 5.11052 5.11052 5.11052 6.51051 6.51051 6.51051 5.38682 5.38682 5.38682 5.29516 5.29516 5.29516 7.55899 7.55899 7.55899 6.78342 6.78342 6.78342 0.136572 0.136572 0.136572 4.76505 4.76505 4.76505 4.96516 4.96516 4.96516 -0.00588459 -0.00588459 -0.00588459 7.48946 7.48946 7.48946 9.99428 9.99428 9.99428 5.69938 5.69938 5.69938 10.0699 10.0699 10.0699 7.47649 7.47649 7.47649 0.0946453 0.0946453 0.0946453 10.0079 10.0079 10.0079 -0.14106 -0.14106 -0.14106 0.0195579 0.0195579 0.0195579 9.97992 9.97992 9.97992 6.42041 6.42041 6.42041 8.75981 8.75981 8.75981 6.30409 6.30409 6.30409 4.67125 4.67125 4.67125 8.29243 8.29243 8.29243 8.31436 8.31436 8.31436 0.0998608 0.0998608 0.0998608 0.0820572 0.0820572 0.0820572 5.34415 5.34415 5.34415 0.464085 0.464085 0.464085 7.11764 7.11764 7.11764 4.84876 4.84876 4.84876 5.20577 5.20577 5.20577 0.257368 0.257368 0.257368 9.85943 9.85943 9.85943 6.46291 6.46291 6.46291 5.28744 5.28744 5.28744 4.89343 4.89343 4.89343 4.39922 4.39922 4.39922 3.89338 3.89338 3.89338 4.31691 4.31691 4.31691 0.190049 0.190049 0.190049 4.243 4.243 4.243 4.90077 4.90077 4.90077 5.27669 5.27669 5.27669 6.82481 6.82481 6.82481 5.32532 5.32532 5.32532 6.69201 6.69201 6.69201 0.0103997 0.0103997 0.0103997 0.0624893 0.0624893 0.0624893 4.35415 4.35415 4.35415 9.56996 9.56996 9.56996 0.0346764 0.0346764 0.0346764 0.000545751 0.000545751 0.000545751 5.5735 5.5735 5.5735 2.71495 2.71495 2.71495 6.65769 6.65769 6.65769 3.95285 3.95285 3.95285 1.38271 1.38271 1.38271 10.2009 10.2009 10.2009 0.14988 0.14988 0.14988 10.0415 10.0415 10.0415 7.05046 7.05046 7.05046 6.92018 6.92018 6.92018 2.85334 2.85334 2.85334 9.99067 9.99067 9.99067 4.52822 4.52822 4.52822 0.22094 0.22094 0.22094 6.95649 6.95649 6.95649 7.54095 7.54095 7.54095 4.0622 4.0622 4.0622 3.56907 3.56907 3.56907 6.41431 6.41431 6.41431 6.85447 6.85447 6.85447 7.04664 7.04664 7.04664 0.116682 0.116682 0.116682 6.4836 6.4836 6.4836 5.12383 5.12383 5.12383 0.487011 0.487011 0.487011 0.022544 0.022544 0.022544 0.00442083 0.00442083 0.00442083 6.79777 6.79777 6.79777 6.98437 6.98437 6.98437 0.0158858 0.0158858 0.0158858 4.45767 4.45767 4.45767 1.07942 1.07942 1.07942 1.84638 1.84638 1.84638 1.67981 1.67981 1.67981 1.4783 1.4783 1.4783 4.80211 4.80211 4.80211 6.63227 6.63227 6.63227 9.96855 9.96855 9.96855 10.1306 10.1306 10.1306 7.06407 7.06407 7.06407 8.49466 8.49466 8.49466 4.32585 4.32585 4.32585 9.97931 9.97931 9.97931 9.68821 9.68821 9.68821 0.126318 0.126318 0.126318 -0.0782369 -0.0782369 -0.0782369 6.88425 6.88425 6.88425 4.29793 4.29793 4.29793 5.35525 5.35525 5.35525 0.10867 0.10867 0.10867 6.8301 6.8301 6.8301 -0.0129714 -0.0129714 -0.0129714 0.937791 0.937791 0.937791 0.0563876 0.0563876 0.0563876 10.0112 10.0112 10.0112 6.99175 6.99175 6.99175 5.97847 5.97847 5.97847 6.95059 6.95059 6.95059 -0.0666279 -0.0666279 -0.0666279 5.37803 5.37803 5.37803 5.52109 5.52109 5.52109 0.0450523 0.0450523 0.0450523 4.24655 4.24655 4.24655 0.0131279 0.0131279 0.0131279 9.07262 9.07262 9.07262 1.79118 1.79118 1.79118 1.43881 1.43881 1.43881 9.88854 9.88854 9.88854 0.703424 0.703424 0.703424 6.23678 6.23678 6.23678 9.98216 9.98216 9.98216 2.23363 2.23363 2.23363 9.94348 9.94348 9.94348 6.98099 6.98099 6.98099 5.82027 5.82027 5.82027 1.81307 1.81307 1.81307 0.71289 0.71289 0.71289 6.77158 6.77158 6.77158 9.8079 9.8079 9.8079 2.12193 2.12193 2.12193 8.03965 8.03965 8.03965 0.0757651 0.0757651 0.0757651 3.31387 3.31387 3.31387 0.0151037 0.0151037 0.0151037 4.47364 4.47364 4.47364 2.84657 2.84657 2.84657 5.30903 5.30903 5.30903 8.43614 8.43614 8.43614 4.40885 4.40885 4.40885 4.83536 4.83536 4.83536 6.64769 6.64769 6.64769 5.78337 5.78337 5.78337 4.99505 4.99505 4.99505 4.37673 4.37673 4.37673 4.66471 4.66471 4.66471 6.95931 6.95931 6.95931 7.12635 7.12635 7.12635 6.83477 6.83477 6.83477 6.6464 6.6464 6.6464 1.9156 1.9156 1.9156 5.52667 5.52667 5.52667 7.21138 7.21138 7.21138 5.58968 5.58968 5.58968 4.97508 4.97508 4.97508 4.17759 4.17759 4.17759 4.78465 4.78465 4.78465 7.19619 7.19619 7.19619 6.66017 6.66017 6.66017 6.41832 6.41832 6.41832 6.88261 6.88261 6.88261 4.85114 4.85114 4.85114 4.69411 4.69411 4.69411 4.67306 4.67306 4.67306 4.24958 4.24958 4.24958 2.83479 2.83479 2.83479 4.23215 4.23215 4.23215 6.37861 6.37861 6.37861 6.87964 6.87964 6.87964 6.81543 6.81543 6.81543 4.4604 4.4604 4.4604 3.72472 3.72472 3.72472 5.50666 5.50666 5.50666 4.79464 4.79464 4.79464 6.89699 6.89699 6.89699 5.6173 5.6173 5.6173 6.92849 6.92849 6.92849 4.56072 4.56072 4.56072 4.41523 4.41523 4.41523 6.89615 6.89615 6.89615 6.4835 6.4835 6.4835 4.6597 4.6597 4.6597 5.5681 5.5681 5.5681 4.94587 4.94587 4.94587 5.81652 5.81652 5.81652 5.03029 5.03029 5.03029 4.53282 4.53282 4.53282 6.69965 6.69965 6.69965 5.16183 5.16183 5.16183 2.13431 2.13431 2.13431 4.50139 4.50139 4.50139 6.91633 6.91633 6.91633 1.93838 1.93838 1.93838 4.98695 4.98695 4.98695 2.78121 2.78121 2.78121 5.11681 5.11681 5.11681 6.88664 6.88664 6.88664 5.21645 5.21645 5.21645 6.55068 6.55068 6.55068 6.89728 6.89728 6.89728 6.54345 6.54345 6.54345 6.75751 6.75751 6.75751 6.62754 6.62754 6.62754 6.92122 6.92122 6.92122 4.56212 4.56212 4.56212 7.02371 7.02371 7.02371 5.3297 5.3297 5.3297 4.67191 4.67191 4.67191 6.45228 6.45228 6.45228 6.74536 6.74536 6.74536 5.16298 5.16298 5.16298 6.91737 6.91737 6.91737 6.63433 6.63433 6.63433 6.73393 6.73393 6.73393 7.32354 7.32354 7.32354 0.00772093 0.00772093 0.00772093 7.08353 7.08353 7.08353 6.93206 6.93206 6.93206 0.965464 0.965464 0.965464 7.01975 7.01975 7.01975 3.71014 3.71014 3.71014 0.991241 0.991241 0.991241 5.42378 5.42378 5.42378 6.89983 6.89983 6.89983 4.87442 4.87442 4.87442 4.83635 4.83635 4.83635 3.84076 3.84076 3.84076 3.52283 3.52283 3.52283 4.10621 4.10621 4.10621 6.94568 6.94568 6.94568 8.16392 8.16392 8.16392 7.28444 7.28444 7.28444 0.528052 0.528052 0.528052 3.6283 3.6283 3.6283 0.370969 0.370969 0.370969 1.95874 1.95874 1.95874 0.695242 0.695242 0.695242 7.09629 7.09629 7.09629 0.934576 0.934576 0.934576 4.78189 4.78189 4.78189 3.96603 3.96603 3.96603 -0.0253731 -0.0253731 -0.0253731 5.4305 5.4305 5.4305 6.83588 6.83588 6.83588 5.48082 5.48082 5.48082 4.72564 4.72564 4.72564 7.41203 7.41203 7.41203 4.45626 4.45626 4.45626 5.63341 5.63341 5.63341 4.5194 4.5194 4.5194 0.137572 0.137572 0.137572 7.38012 7.38012 7.38012 9.46911 9.46911 9.46911 7.36514 7.36514 7.36514 7.28431 7.28431 7.28431 9.73334 9.73334 9.73334 0.326189 0.326189 0.326189 0.0646063 0.0646063 0.0646063 0.591599 0.591599 0.591599 0.426973 0.426973 0.426973 6.37497 6.37497 6.37497 5.07644 5.07644 5.07644 4.49961 4.49961 4.49961 4.23485 4.23485 4.23485 6.87734 6.87734 6.87734 9.7828 9.7828 9.7828 7.22992 7.22992 7.22992 4.80953 4.80953 4.80953 1.77467 1.77467 1.77467 4.39214 4.39214 4.39214 6.45211 6.45211 6.45211 7.07442 7.07442 7.07442 6.85814 6.85814 6.85814 7.05192 7.05192 7.05192 6.74401 6.74401 6.74401 6.94122 6.94122 6.94122 6.53618 6.53618 6.53618 7.05791 7.05791 7.05791 6.79585 6.79585 6.79585 0.326664 0.326664 0.326664 1.14484 1.14484 1.14484 6.78724 6.78724 6.78724 5.03175 5.03175 5.03175 10.2088 10.2088 10.2088 6.90654 6.90654 6.90654 6.51538 6.51538 6.51538 7.30897 7.30897 7.30897 7.28471 7.28471 7.28471 0.0109678 0.0109678 0.0109678 1.20083 1.20083 1.20083 7.18566 7.18566 7.18566 5.0589 5.0589 5.0589 5.08736 5.08736 5.08736 9.87253 9.87253 9.87253 9.96981 9.96981 9.96981 5.56544 5.56544 5.56544 9.21037 9.21037 9.21037 4.48906 4.48906 4.48906 6.86694 6.86694 6.86694 9.55851 9.55851 9.55851 6.86669 6.86669 6.86669 9.9196 9.9196 9.9196 6.98561 6.98561 6.98561 4.88243 4.88243 4.88243 6.82782 6.82782 6.82782 10.0779 10.0779 10.0779 2.66893 2.66893 2.66893 -0.16363 -0.16363 -0.16363 5.3036 5.3036 5.3036 5.56275 5.56275 5.56275 1.91184 1.91184 1.91184 7.51226 7.51226 7.51226 6.50902 6.50902 6.50902 9.09625 9.09625 9.09625 6.23293 6.23293 6.23293 6.70217 6.70217 6.70217 -0.0469234 -0.0469234 -0.0469234 8.88217 8.88217 8.88217 5.36431 5.36431 5.36431 5.04079 5.04079 5.04079 7.34897 7.34897 7.34897 9.506 9.506 9.506 6.83258 6.83258 6.83258 3.05162 3.05162 3.05162 6.87095 6.87095 6.87095 9.66384 9.66384 9.66384 2.06594 2.06594 2.06594 4.45328 4.45328 4.45328 6.59934 6.59934 6.59934 6.34845 6.34845 6.34845 1.05399 1.05399 1.05399 3.72202 3.72202 3.72202 6.91294 6.91294 6.91294 6.95548 6.95548 6.95548 6.58704 6.58704 6.58704 8.16321 8.16321 8.16321 9.14696 9.14696 9.14696 4.6103 4.6103 4.6103 9.67561 9.67561 9.67561 8.73633 8.73633 8.73633 6.49419 6.49419 6.49419 5.19279 5.19279 5.19279 3.84087 3.84087 3.84087 5.10799 5.10799 5.10799 0.463216 0.463216 0.463216 0.102641 0.102641 0.102641 2.00275 2.00275 2.00275 0.651028 0.651028 0.651028 3.36293 3.36293 3.36293 5.31787 5.31787 5.31787 4.434 4.434 4.434 4.61626 4.61626 4.61626 5.19363 5.19363 5.19363 5.58897 5.58897 5.58897 0.680418 0.680418 0.680418 4.95164 4.95164 4.95164 8.51881 8.51881 8.51881 6.86883 6.86883 6.86883 5.42213 5.42213 5.42213 4.22783 4.22783 4.22783 4.44631 4.44631 4.44631 7.30416 7.30416 7.30416 6.17388 6.17388 6.17388 9.9951 9.9951 9.9951 7.58916 7.58916 7.58916 6.96885 6.96885 6.96885 5.14042 5.14042 5.14042 6.77398 6.77398 6.77398 5.51846 5.51846 5.51846 6.50228 6.50228 6.50228 6.99043 6.99043 6.99043 5.46989 5.46989 5.46989 6.92756 6.92756 6.92756 8.12677 8.12677 8.12677 7.85267 7.85267 7.85267 6.45871 6.45871 6.45871 6.07483 6.07483 6.07483 7.85563 7.85563 7.85563 2.37035 2.37035 2.37035 6.74697 6.74697 6.74697 8.59082 8.59082 8.59082 5.0457 5.0457 5.0457 6.72502 6.72502 6.72502 10.0387 10.0387 10.0387 5.48556 5.48556 5.48556 0.100039 0.100039 0.100039 5.701 5.701 5.701 0.0445298 0.0445298 0.0445298 0.831793 0.831793 0.831793 5.32493 5.32493 5.32493 5.42852 5.42852 5.42852 9.99928 9.99928 9.99928 5.23254 5.23254 5.23254 9.9754 9.9754 9.9754 5.45081 5.45081 5.45081 4.93121 4.93121 4.93121 7.0015 7.0015 7.0015 2.60669 2.60669 2.60669 3.78471 3.78471 3.78471 9.72829 9.72829 9.72829 7.91098 7.91098 7.91098 7.2036 7.2036 7.2036 6.28745 6.28745 6.28745 7.67649 7.67649 7.67649 0.410992 0.410992 0.410992 7.68339 7.68339 7.68339 6.37641 6.37641 6.37641 1.45027 1.45027 1.45027 9.32754 9.32754 9.32754 9.68362 9.68362 9.68362 5.80421 5.80421 5.80421 5.04174 5.04174 5.04174 5.14991 5.14991 5.14991 3.73991 3.73991 3.73991 5.10715 5.10715 5.10715 4.75608 4.75608 4.75608 3.26777 3.26777 3.26777 6.25595 6.25595 6.25595 5.09517 5.09517 5.09517 5.15454 5.15454 5.15454 5.43595 5.43595 5.43595 5.84953 5.84953 5.84953 5.51487 5.51487 5.51487 6.06544 6.06544 6.06544 6.32984 6.32984 6.32984 6.80164 6.80164 6.80164 4.0731 4.0731 4.0731 6.70597 6.70597 6.70597 6.25167 6.25167 6.25167 7.00856 7.00856 7.00856 4.31827 4.31827 4.31827 7.45036 7.45036 7.45036 2.78814 2.78814 2.78814 9.57312 9.57312 9.57312 4.1498 4.1498 4.1498 9.99084 9.99084 9.99084 5.95583 5.95583 5.95583 6.64859 6.64859 6.64859 6.93302 6.93302 6.93302 4.40083 4.40083 4.40083 0.212036 0.212036 0.212036 7.46597 7.46597 7.46597 0.643156 0.643156 0.643156 5.32182 5.32182 5.32182 5.31836 5.31836 5.31836 8.88278 8.88278 8.88278 5.1687 5.1687 5.1687 9.55388 9.55388 9.55388 6.91256 6.91256 6.91256 0.924526 0.924526 0.924526 1.87457 1.87457 1.87457 7.6771 7.6771 7.6771 10.0356 10.0356 10.0356 9.84342 9.84342 9.84342 9.71906 9.71906 9.71906 10.0336 10.0336 10.0336 6.66932 6.66932 6.66932 7.27885 7.27885 7.27885 4.30227 4.30227 4.30227 5.15717 5.15717 5.15717 5.14936 5.14936 5.14936 5.61304 5.61304 5.61304 6.94519 6.94519 6.94519 10.1031 10.1031 10.1031 4.67078 4.67078 4.67078 4.36044 4.36044 4.36044 7.09205 7.09205 7.09205 7.05062 7.05062 7.05062 9.61167 9.61167 9.61167 5.36866 5.36866 5.36866 0.302982 0.302982 0.302982 1.64727 1.64727 1.64727 4.68005 4.68005 4.68005 1.92554 1.92554 1.92554 0.347803 0.347803 0.347803 10.1359 10.1359 10.1359 5.29685 5.29685 5.29685 5.66912 5.66912 5.66912 4.83572 4.83572 4.83572 0.147774 0.147774 0.147774 4.80168 4.80168 4.80168 4.541 4.541 4.541 4.41738 4.41738 4.41738 9.3129 9.3129 9.3129 9.88625 9.88625 9.88625 5.88769 5.88769 5.88769 5.4076 5.4076 5.4076 4.2919 4.2919 4.2919 6.15553 6.15553 6.15553 4.49362 4.49362 4.49362 6.95763 6.95763 6.95763 1.26352 1.26352 1.26352 4.4084 4.4084 4.4084 1.75456 1.75456 1.75456 5.29875 5.29875 5.29875 0.325944 0.325944 0.325944 5.47372 5.47372 5.47372 9.9496 9.9496 9.9496 4.30009 4.30009 4.30009 2.67998 2.67998 2.67998 6.22974 6.22974 6.22974 0.974147 0.974147 0.974147 6.93758 6.93758 6.93758 6.5484 6.5484 6.5484 6.2355 6.2355 6.2355 5.56506 5.56506 5.56506 4.40506 4.40506 4.40506 4.36223 4.36223 4.36223 6.44369 6.44369 6.44369 7.20103 7.20103 7.20103 5.35619 5.35619 5.35619 9.0866 9.0866 9.0866 -0.216864 -0.216864 -0.216864 6.39922 6.39922 6.39922 6.97308 6.97308 6.97308 6.11585 6.11585 6.11585 6.73898 6.73898 6.73898 5.50875 5.50875 5.50875 6.88025 6.88025 6.88025 8.5624 8.5624 8.5624 4.7612 4.7612 4.7612 5.00503 5.00503 5.00503 4.55326 4.55326 4.55326 9.78107 9.78107 9.78107 7.12122 7.12122 7.12122 7.88986 7.88986 7.88986 9.76613 9.76613 9.76613 0.382965 0.382965 0.382965 -0.00842736 -0.00842736 -0.00842736 8.1204 8.1204 8.1204 0.0127789 0.0127789 0.0127789 9.46456 9.46456 9.46456 0.250683 0.250683 0.250683 9.30948 9.30948 9.30948 7.83371 7.83371 7.83371 6.9432 6.9432 6.9432 6.89032 6.89032 6.89032 7.82963 7.82963 7.82963 0.100184 0.100184 0.100184 9.79677 9.79677 9.79677 2.16561 2.16561 2.16561 0.726426 0.726426 0.726426 4.58346 4.58346 4.58346 1.33137 1.33137 1.33137 3.92377 3.92377 3.92377 8.38993 8.38993 8.38993 7.68324 7.68324 7.68324 5.4043 5.4043 5.4043 3.73269 3.73269 3.73269 6.98931 6.98931 6.98931 0.17582 0.17582 0.17582 6.70079 6.70079 6.70079 6.99562 6.99562 6.99562 8.61112 8.61112 8.61112 6.8606 6.8606 6.8606 6.95028 6.95028 6.95028 9.44919 9.44919 9.44919 9.70176 9.70176 9.70176 7.41177 7.41177 7.41177 9.83281 9.83281 9.83281 -0.0540156 -0.0540156 -0.0540156 5.18604 5.18604 5.18604 9.96933 9.96933 9.96933 9.8914 9.8914 9.8914 5.66563 5.66563 5.66563 10.0265 10.0265 10.0265 5.67479 5.67479 5.67479 -0.070546 -0.070546 -0.070546 6.71754 6.71754 6.71754 0.215194 0.215194 0.215194 4.28939 4.28939 4.28939 5.16567 5.16567 5.16567 2.77805 2.77805 2.77805 7.03796 7.03796 7.03796 6.77018 6.77018 6.77018 9.9451 9.9451 9.9451 8.17672 8.17672 8.17672 8.30647 8.30647 8.30647 6.15362 6.15362 6.15362 9.74106 9.74106 9.74106 6.91017 6.91017 6.91017 0.153603 0.153603 0.153603 0.076173 0.076173 0.076173 0.36952 0.36952 0.36952 -0.117798 -0.117798 -0.117798 6.49877 6.49877 6.49877 1.16296 1.16296 1.16296 4.98149 4.98149 4.98149 10.0757 10.0757 10.0757 6.66991 6.66991 6.66991 -0.0816705 -0.0816705 -0.0816705 9.15205 9.15205 9.15205 6.5764 6.5764 6.5764 2.38456 2.38456 2.38456 9.84708 9.84708 9.84708 9.94286 9.94286 9.94286 4.24727 4.24727 4.24727 6.89539 6.89539 6.89539 4.37289 4.37289 4.37289 6.90616 6.90616 6.90616 7.77048 7.77048 7.77048 -0.137386 -0.137386 -0.137386 6.23977 6.23977 6.23977 1.0737 1.0737 1.0737 5.4874 5.4874 5.4874 7.00638 7.00638 7.00638 4.36336 4.36336 4.36336 3.00487 3.00487 3.00487 5.09887 5.09887 5.09887 5.56892 5.56892 5.56892 9.12364 9.12364 9.12364 10.1038 10.1038 10.1038 9.56422 9.56422 9.56422 5.89139 5.89139 5.89139 5.90121 5.90121 5.90121 6.89807 6.89807 6.89807 -0.0536682 -0.0536682 -0.0536682 9.65184 9.65184 9.65184 0.253224 0.253224 0.253224 9.85535 9.85535 9.85535 5.39347 5.39347 5.39347 -0.114872 -0.114872 -0.114872 6.84033 6.84033 6.84033 5.41592 5.41592 5.41592 -0.20167 -0.20167 -0.20167 9.89807 9.89807 9.89807 5.15797 5.15797 5.15797 0.16765 0.16765 0.16765 0.257815 0.257815 0.257815 7.53205 7.53205 7.53205 4.69067 4.69067 4.69067 5.26748 5.26748 5.26748 5.41357 5.41357 5.41357 7.71708 7.71708 7.71708 9.35818 9.35818 9.35818 2.42568 2.42568 2.42568 4.47196 4.47196 4.47196 8.40602 8.40602 8.40602 9.18677 9.18677 9.18677 6.72919 6.72919 6.72919 5.24024 5.24024 5.24024 6.06035 6.06035 6.06035 4.92718 4.92718 4.92718 5.59642 5.59642 5.59642 6.07072 6.07072 6.07072 4.67809 4.67809 4.67809 9.2976 9.2976 9.2976 9.92341 9.92341 9.92341 10.0068 10.0068 10.0068 6.60836 6.60836 6.60836 9.85064 9.85064 9.85064 3.52178 3.52178 3.52178 3.44071 3.44071 3.44071 4.86508 4.86508 4.86508 6.59885 6.59885 6.59885 9.34044 9.34044 9.34044 4.93901 4.93901 4.93901 4.94589 4.94589 4.94589 5.14263 5.14263 5.14263 6.65943 6.65943 6.65943 3.15909 3.15909 3.15909 0.0204843 0.0204843 0.0204843 6.79708 6.79708 6.79708 9.95288 9.95288 9.95288 4.86507 4.86507 4.86507 6.84099 6.84099 6.84099 6.70693 6.70693 6.70693 -0.00893155 -0.00893155 -0.00893155 6.39223 6.39223 6.39223 4.09852 4.09852 4.09852 6.88391 6.88391 6.88391 5.63231 5.63231 5.63231 5.41113 5.41113 5.41113 5.29261 5.29261 5.29261 9.6404 9.6404 9.6404 0.920352 0.920352 0.920352 5.26463 5.26463 5.26463 7.547 7.547 7.547 6.2307 6.2307 6.2307 3.11947 3.11947 3.11947 9.85411 9.85411 9.85411 7.99651 7.99651 7.99651 7.02496 7.02496 7.02496 6.98767 6.98767 6.98767 9.99697 9.99697 9.99697 2.94059 2.94059 2.94059 5.23397 5.23397 5.23397 5.49538 5.49538 5.49538 5.83666 5.83666 5.83666 9.92776 9.92776 9.92776 6.63196 6.63196 6.63196 6.14017 6.14017 6.14017 8.1749 8.1749 8.1749 5.28778 5.28778 5.28778 6.01355 6.01355 6.01355 2.38864 2.38864 2.38864 -0.0455001 -0.0455001 -0.0455001 6.90036 6.90036 6.90036 0.042913 0.042913 0.042913 3.74408 3.74408 3.74408 0.0559407 0.0559407 0.0559407 6.80091 6.80091 6.80091 -0.100943 -0.100943 -0.100943 6.94084 6.94084 6.94084 5.77774 5.77774 5.77774 5.15938 5.15938 5.15938 1.90676 1.90676 1.90676 5.77448 5.77448 5.77448 9.70854 9.70854 9.70854 5.36088 5.36088 5.36088 2.93375 2.93375 2.93375 0.100701 0.100701 0.100701 0.0540761 0.0540761 0.0540761 6.03188 6.03188 6.03188 5.72232 5.72232 5.72232 5.39801 5.39801 5.39801 5.54534 5.54534 5.54534 7.04823 7.04823 7.04823 6.89137 6.89137 6.89137 2.25446 2.25446 2.25446 9.28114 9.28114 9.28114 7.21256 7.21256 7.21256 9.55061 9.55061 9.55061 6.1595 6.1595 6.1595 5.46554 5.46554 5.46554 10.2184 10.2184 10.2184 3.65336 3.65336 3.65336 5.88964 5.88964 5.88964 6.1691 6.1691 6.1691 6.80494 6.80494 6.80494 5.10685 5.10685 5.10685 8.78242 8.78242 8.78242 9.80503 9.80503 9.80503 9.64687 9.64687 9.64687 4.82314 4.82314 4.82314 8.67011 8.67011 8.67011 2.68204 2.68204 2.68204 -0.00240944 -0.00240944 -0.00240944 5.15753 5.15753 5.15753 9.8763 9.8763 9.8763 0.0312234 0.0312234 0.0312234 7.71139 7.71139 7.71139 9.10024 9.10024 9.10024 0.175563 0.175563 0.175563 7.48925 7.48925 7.48925 9.59282 9.59282 9.59282 6.98704 6.98704 6.98704