# vtk DataFile Version 3.0
vtk output
ASCII
DATASET UNSTRUCTURED_GRID
POINTS 17480 float
0.0603793	0.0090957	0.160519	
0.0904908	0.170765	0.159817	
-0.0341142	0.113867	0.250814	
0.102495	0.11997	0.264802	
0.5	0	0.2	
0.364988	0.109735	0.263774	
0.334086	0.0370714	0.16525	
0.370375	-0.0671022	0.257475	
-0.444481	-0.228991	0.0919014	
-0.374595	-0.0873247	0.117455	
-0.269341	-0.201154	0.169023	
-0.275077	-0.119224	0.102748	
0.196796	0.354228	0.5	
0.228991	0.444481	0.408099	
0.22095	0.291034	0.346604	
0.0804661	0.372171	0.377993	
0.328092	0.270243	0	
0.386505	0.317197	0.0688254	
0.227799	0.256719	0.161264	
0.327512	0.168835	0.13044	
-0.0341142	0.113867	0.250814	
0.0904908	0.170765	0.159817	
0.0603793	0.0090957	0.160519	
0.04259	0.0957748	0.0972509	
0.153084	-0.0880453	0.135895	
0.143921	-0.0736091	0.260892	
0.0362446	-0.13014	0.250465	
0.109758	-0.214467	0.270707	
-0.356684	-0.19351	0	
-0.444481	-0.228991	0.0919014	
-0.269341	-0.201154	0.169023	
-0.275077	-0.119224	0.102748	
-0.267316	-0.203168	0.336848	
-0.358772	-0.11614	0.36635	
-0.262519	-0.0832944	0.5	
-0.175968	-0.135992	0.338029	
0.0420691	0.427134	0	
0.0540882	0.337091	0.15152	
0	0.5	0.1	
-0.0714313	0.379857	0.110067	
-0.444481	-0.228991	0.0919014	
-0.429146	-0.25658	0.16876	
-0.269341	-0.201154	0.169023	
-0.374595	-0.0873247	0.117455	
0.317206	0.386498	0.299678	
0.315434	0.222572	0.240138	
0.22095	0.291034	0.346604	
0.173765	0.338831	0.233339	
0.322451	0.0144002	0.334794	
0.308034	0.17727	0.353981	
0.218809	0.121581	0.250148	
0.240261	0.0350229	0.402836	
-0.0505573	-0.00469477	0.5	
-0.0646627	-0.0272093	0.335016	
-0.122627	0.0544512	0.5	
-0.0527152	0.0950891	0.390784	
-0.356684	-0.19351	0	
-0.374595	-0.0873247	0.117455	
-0.444481	-0.228991	0.0919014	
-0.275077	-0.119224	0.102748	
0.327062	-0.133702	0.350244	
0.205712	-0.0609706	0.365394	
0.257374	-0.098487	0.223367	
0.24114	-0.149085	0.404027	
-0.142648	-0.00714059	0	
-0.134825	0.0680349	0.146947	
-0.0779543	-0.0725374	0.153012	
-0.0383015	0.0232581	0.102769	
0.308034	0.17727	0.353981	
0.17182	0.113313	0.371264	
0.218809	0.121581	0.250148	
0.240261	0.0350229	0.402836	
0.316847	0.386792	0.198616	
0.315434	0.222572	0.240138	
0.317206	0.386498	0.299678	
0.173765	0.338831	0.233339	
-0.0646627	-0.0272093	0.335016	
-0.0739341	-0.184055	0.34975	
0.0362446	-0.13014	0.250465	
0.0292443	-0.0551693	0.315985	
0.115537	0.0107471	0	
0.195808	0.041614	0.135744	
0.0603793	0.0090957	0.160519	
0.153084	-0.0880453	0.135895	
-0.269341	-0.201154	0.169023	
-0.28242	-0.274225	0.0937223	
-0.356684	-0.19351	0	
-0.275077	-0.119224	0.102748	
-0.495012	-0.0704482	0.428155	
-0.5	0	0.4	
-0.42782	-0.0498056	0.5	
-0.358772	-0.11614	0.36635	
-0.354878	0.123846	0.244627	
-0.201798	0.0517729	0.246381	
-0.301517	0.172887	0.349578	
-0.261609	0.0749827	0.393802	
0.115537	0.0107471	0	
0.153084	-0.0880453	0.135895	
0.0603793	0.0090957	0.160519	
0.0349199	-0.099137	0.113215	
-0.122627	0.0544512	0.5	
-0.0646627	-0.0272093	0.335016	
-0.0505573	-0.00469477	0.5	
-0.112364	-0.0877996	0.406457	
-0.468495	-0.174678	0.182891	
-0.269341	-0.201154	0.169023	
-0.429146	-0.25658	0.16876	
-0.374595	-0.0873247	0.117455	
0.0420691	0.427134	0	
0.0704482	0.495012	0.0718447	
0	0.5	0.1	
0.0540882	0.337091	0.15152	
0.334086	0.0370714	0.16525	
0.364988	0.109735	0.263774	
0.493389	0.0810399	0.14715	
0.382697	0.0900146	0.0901371	
-0.262519	-0.0832944	0.5	
-0.358772	-0.11614	0.36635	
-0.188849	-0.0237464	0.373158	
-0.175968	-0.135992	0.338029	
-0.235698	0.440961	0.0686036	
-0.201912	0.369986	0	
-0.0714313	0.379857	0.110067	
-0.13617	0.283588	0.0953011	
-0.444481	-0.228991	0.0919014	
-0.356684	-0.19351	0	
-0.269341	-0.201154	0.169023	
-0.28242	-0.274225	0.0937223	
-0.0232782	-0.127584	0	
-0.0200202	-0.20323	0.140535	
-0.0779543	-0.0725374	0.153012	
-0.147445	-0.179827	0.128956	
-0.142648	-0.00714059	0	
-0.0779543	-0.0725374	0.153012	
-0.134825	0.0680349	0.146947	
-0.220281	-0.031921	0.125401	
0.0420691	0.427134	0	
0.0153159	0.363557	0	
0.0540882	0.337091	0.15152	
-0.0714313	0.379857	0.110067	
0.328092	0.270243	0	
0.317233	0.386476	0.0904728	
0.261819	0.319027	0	
0.227799	0.256719	0.161264	
0.0362446	-0.13014	0.250465	
0.154755	-0.229359	0.16737	
0.109758	-0.214467	0.270707	
0.0675207	-0.289808	0.212123	
-0.0646627	-0.0272093	0.335016	
0.0362446	-0.13014	0.250465	
-0.115752	-0.145542	0.242419	
-0.032045	0.00109893	0.228452	
0.0362446	-0.13014	0.250465	
-0.0200202	-0.20323	0.140535	
0.154755	-0.229359	0.16737	
0.0675207	-0.289808	0.212123	
0.154755	-0.229359	0.16737	
0.153084	-0.0880453	0.135895	
0.0362446	-0.13014	0.250465	
0.109758	-0.214467	0.270707	
-0.239764	-0.151909	0.5	
-0.267316	-0.203168	0.336848	
-0.262519	-0.0832944	0.5	
-0.175968	-0.135992	0.338029	
0.386505	0.317197	0.0688254	
0.317233	0.386476	0.0904728	
0.328092	0.270243	0	
0.227799	0.256719	0.161264	
-0.117671	-0.10197	0	
-0.0232782	-0.127584	0	
-0.0779543	-0.0725374	0.153012	
-0.147445	-0.179827	0.128956	
-0.235698	0.440961	0.0686036	
-0.0714313	0.379857	0.110067	
-0.2429	0.437035	0.152631	
-0.13617	0.283588	0.0953011	
0.154755	-0.229359	0.16737	
-0.0200202	-0.20323	0.140535	
0.0362446	-0.13014	0.250465	
0.105136	-0.172994	0.0956717	
-0.247023	0.434718	0.250558	
-0.176182	0.282501	0.333733	
-0.317163	0.386533	0.299742	
-0.277293	0.260919	0.267415	
-0.0646627	-0.0272093	0.335016	
0.0362446	-0.13014	0.250465	
-0.0739341	-0.184055	0.34975	
-0.115752	-0.145542	0.242419	
0.0362446	-0.13014	0.250465	
-0.032045	0.00109893	0.228452	
-0.0646627	-0.0272093	0.335016	
0.0292443	-0.0551693	0.315985	
-0.416747	0.276265	0.362548	
-0.439384	0.238625	0.423358	
-0.301517	0.172887	0.349578	
-0.276891	0.277667	0.386451	
0.317319	-0.386405	0.201487	
0.180335	-0.320871	0.25933	
0.307021	-0.223333	0.261668	
0.23319	-0.305698	0.109456	
-0.117671	-0.10197	0	
-0.0779543	-0.0725374	0.153012	
-0.220281	-0.031921	0.125401	
-0.147445	-0.179827	0.128956	
0.0903521	0.10545	0	
0.195808	0.041614	0.135744	
0.201932	0.155478	0.107683	
0.04259	0.0957748	0.0972509	
-0.5	0	0.4	
-0.334634	0.00771017	0.33657	
-0.42782	-0.0498056	0.5	
-0.358772	-0.11614	0.36635	
0.307021	-0.223333	0.261668	
0.23319	-0.305698	0.109456	
0.180335	-0.320871	0.25933	
0.214683	-0.189052	0.238302	
-0.209296	-0.0687964	0.252985	
-0.188849	-0.0237464	0.373158	
-0.358772	-0.11614	0.36635	
-0.175968	-0.135992	0.338029	
-0.26105	0.203399	0	
-0.1632	0.180339	0.117277	
-0.228343	0.287598	0.142133	
-0.33672	0.17128	0.12732	
-0.247023	0.434718	0.250558	
-0.256554	0.429162	0.331268	
-0.317163	0.386533	0.299742	
-0.176182	0.282501	0.333733	
-0.374813	0.199394	0.5	
-0.335163	0.274889	0.5	
-0.304559	0.211579	0.5	
-0.276891	0.277667	0.386451	
0.267645	-0.326424	0.5	
0.238057	-0.243638	0.5	
0.307193	-0.244124	0.374573	
0.163077	-0.321214	0.379886	
0.0603793	0.0090957	0.160519	
-0.0383015	0.0232581	0.102769	
-0.0341142	0.113867	0.250814	
0.04259	0.0957748	0.0972509	
0.0903521	0.10545	0	
0.195808	0.041614	0.135744	
0.184962	0.0799289	0	
0.201932	0.155478	0.107683	
0.115537	0.0107471	0	
0.0603793	0.0090957	0.160519	
0.195808	0.041614	0.135744	
0.04259	0.0957748	0.0972509	
0.154755	-0.229359	0.16737	
0.143921	-0.0736091	0.260892	
0.153084	-0.0880453	0.135895	
0.109758	-0.214467	0.270707	
0.0603793	0.0090957	0.160519	
-0.032045	0.00109893	0.228452	
-0.0341142	0.113867	0.250814	
-0.0383015	0.0232581	0.102769	
-0.117671	-0.10197	0	
-0.0779543	-0.0725374	0.153012	
-0.142648	-0.00714059	0	
-0.220281	-0.031921	0.125401	
-0.159378	0.10044	0.348698	
-0.201798	0.0517729	0.246381	
-0.301517	0.172887	0.349578	
-0.206936	0.196576	0.295071	
-0.238308	0.160613	0.208202	
-0.301517	0.172887	0.349578	
-0.354878	0.123846	0.244627	
-0.201798	0.0517729	0.246381	
-0.122627	0.0544512	0.5	
-0.0646627	-0.0272093	0.335016	
-0.188849	-0.0237464	0.373158	
-0.0527152	0.0950891	0.390784	
0.218809	0.121581	0.250148	
0.308034	0.17727	0.353981	
0.322451	0.0144002	0.334794	
0.364988	0.109735	0.263774	
-0.374813	0.199394	0.5	
-0.304559	0.211579	0.5	
-0.301517	0.172887	0.349578	
-0.276891	0.277667	0.386451	
0.115537	0.0107471	0	
0.195808	0.041614	0.135744	
0.0903521	0.10545	0	
0.04259	0.0957748	0.0972509	
-0.269341	-0.201154	0.169023	
-0.349306	-0.102086	0.237815	
-0.429146	-0.25658	0.16876	
-0.326617	-0.238576	0.253202	
-0.122627	0.0544512	0.5	
-0.0505573	-0.00469477	0.5	
-0.120671	-0.0405641	0.5	
-0.112364	-0.0877996	0.406457	
0.5	0	0.3	
0.364988	0.109735	0.263774	
0.5	0	0.2	
0.370375	-0.0671022	0.257475	
0.115537	0.0107471	0	
0.0603793	0.0090957	0.160519	
0.0461078	-0.0584269	0	
0.0349199	-0.099137	0.113215	
0.173765	0.338831	0.233339	
0.156948	0.213263	0.238247	
0.0540882	0.337091	0.15152	
0.0776161	0.251925	0.0921435	
-0.262519	-0.0832944	0.5	
-0.267316	-0.203168	0.336848	
-0.239764	-0.151909	0.5	
-0.358772	-0.11614	0.36635	
0.0603793	0.0090957	0.160519	
0.102495	0.11997	0.264802	
-0.0341142	0.113867	0.250814	
0.000906282	0.043941	0.311068	
0.0362446	-0.13014	0.250465	
0.153084	-0.0880453	0.135895	
0.0603793	0.0090957	0.160519	
0.143921	-0.0736091	0.260892	
0.227799	0.256719	0.161264	
0.156948	0.213263	0.238247	
0.173765	0.338831	0.233339	
0.0776161	0.251925	0.0921435	
0.316847	0.386792	0.198616	
0.227799	0.256719	0.161264	
0.315434	0.222572	0.240138	
0.173765	0.338831	0.233339	
-0.439384	0.238625	0.423358	
-0.450312	0.217299	0.354112	
-0.416747	0.276265	0.362548	
-0.301517	0.172887	0.349578	
-0.0739341	-0.184055	0.34975	
0.0943746	-0.140978	0.374495	
0.0362446	-0.13014	0.250465	
-0.00932629	-0.104346	0.393808	
-0.145646	0.149141	0.5	
-0.0728851	0.200383	0.343081	
-0.0527152	0.0950891	0.390784	
-0.201617	0.192684	0.393966	
-0.468495	-0.174678	0.182891	
-0.429146	-0.25658	0.16876	
-0.269341	-0.201154	0.169023	
-0.349306	-0.102086	0.237815	
0.25658	0.429146	0.33124	
0.22095	0.291034	0.346604	
0.228991	0.444481	0.408099	
0.0804661	0.372171	0.377993	
0.257374	-0.098487	0.223367	
0.327062	-0.133702	0.350244	
0.322451	0.0144002	0.334794	
0.205712	-0.0609706	0.365394	
0.115537	0.0107471	0	
0.0461078	-0.0584269	0	
0.153084	-0.0880453	0.135895	
0.0349199	-0.099137	0.113215	
0.154755	-0.229359	0.16737	
[...]
CELL_DATA 4370
POINT_DATA 17480
SCALARS Pressure float 
LOOKUP_TABLE default
9.51377 9.51377 9.51377 9.51377 9.53394 9.53394 9.53394 9.53394 9.75437 9.75437 9.75437 9.75437 6.5842 6.5842 6.5842 6.5842 9.74083 9.74083 9.74083 9.74083 9.59401 9.59401 9.59401 9.59401 9.50902 9.50902 9.50902 9.50902 9.78354 9.78354 9.78354 9.78354 8.7398 8.7398 8.7398 8.7398 9.69999 9.69999 9.69999 9.69999 9.60574 9.60574 9.60574 9.60574 9.13008 9.13008 9.13008 9.13008 9.59429 9.59429 9.59429 9.59429 10.3661 10.3661 10.3661 10.3661 9.76873 9.76873 9.76873 9.76873 9.60799 9.60799 9.60799 9.60799 9.80627 9.80627 9.80627 9.80627 8.97589 8.97589 8.97589 8.97589 9.08868 9.08868 9.08868 9.08868 9.77316 9.77316 9.77316 9.77316 9.69879 9.69879 9.69879 9.69879 9.8134 9.8134 9.8134 9.8134 9.53604 9.53604 9.53604 9.53604 9.58337 9.58337 9.58337 9.58337 9.74493 9.74493 9.74493 9.74493 10.4531 10.4531 10.4531 10.4531 9.51747 9.51747 9.51747 9.51747 9.74978 9.74978 9.74978 9.74978 9.63235 9.63235 9.63235 9.63235 9.39165 9.39165 9.39165 9.39165 9.78096 9.78096 9.78096 9.78096 9.75542 9.75542 9.75542 9.75542 9.75432 9.75432 9.75432 9.75432 9.8046 9.8046 9.8046 9.8046 9.82651 9.82651 9.82651 9.82651 9.82492 9.82492 9.82492 9.82492 9.30473 9.30473 9.30473 9.30473 9.42728 9.42728 9.42728 9.42728 9.46009 9.46009 9.46009 9.46009 9.45155 9.45155 9.45155 9.45155 6.58287 6.58287 6.58287 6.58287 9.7754 9.7754 9.7754 9.7754 9.83633 9.83633 9.83633 9.83633 9.70203 9.70203 9.70203 9.70203 9.50978 9.50978 9.50978 9.50978 9.02976 9.02976 9.02976 9.02976 9.50615 9.50615 9.50615 9.50615 9.63364 9.63364 9.63364 9.63364 9.48669 9.48669 9.48669 9.48669 9.52748 9.52748 9.52748 9.52748 9.7564 9.7564 9.7564 9.7564 9.76265 9.76265 9.76265 9.76265 9.60935 9.60935 9.60935 9.60935 9.52826 9.52826 9.52826 9.52826 9.01345 9.01345 9.01345 9.01345 9.73555 9.73555 9.73555 9.73555 8.71013 8.71013 8.71013 8.71013 10.4374 10.4374 10.4374 10.4374 9.8373 9.8373 9.8373 9.8373 9.64579 9.64579 9.64579 9.64579 9.86568 9.86568 9.86568 9.86568 9.74536 9.74536 9.74536 9.74536 9.54522 9.54522 9.54522 9.54522 9.64291 9.64291 9.64291 9.64291 9.81388 9.81388 9.81388 9.81388 9.20203 9.20203 9.20203 9.20203 9.56489 9.56489 9.56489 9.56489 10.1409 10.1409 10.1409 10.1409 9.38999 9.38999 9.38999 9.38999 10.1076 10.1076 10.1076 10.1076 9.82305 9.82305 9.82305 9.82305 9.41732 9.41732 9.41732 9.41732 10.9187 10.9187 10.9187 10.9187 9.58448 9.58448 9.58448 9.58448 9.84414 9.84414 9.84414 9.84414 9.32087 9.32087 9.32087 9.32087 6.19242 6.19242 6.19242 6.19242 9.49392 9.49392 9.49392 9.49392 9.59827 9.59827 9.59827 9.59827 9.35806 9.35806 9.35806 9.35806 9.32084 9.32084 9.32084 9.32084 9.40527 9.40527 9.40527 9.40527 9.43614 9.43614 9.43614 9.43614 9.27148 9.27148 9.27148 9.27148 9.53729 9.53729 9.53729 9.53729 7.54836 7.54836 7.54836 7.54836 9.48789 9.48789 9.48789 9.48789 9.82256 9.82256 9.82256 9.82256 9.52549 9.52549 9.52549 9.52549 9.4963 9.4963 9.4963 9.4963 9.92983 9.92983 9.92983 9.92983 9.26653 9.26653 9.26653 9.26653 9.01091 9.01091 9.01091 9.01091 9.61665 9.61665 9.61665 9.61665 9.23479 9.23479 9.23479 9.23479 9.66145 9.66145 9.66145 9.66145 9.49286 9.49286 9.49286 9.49286 9.65402 9.65402 9.65402 9.65402 5.30556 5.30556 5.30556 5.30556 9.95322 9.95322 9.95322 9.95322 9.6191 9.6191 9.6191 9.6191 9.84908 9.84908 9.84908 9.84908 9.68009 9.68009 9.68009 9.68009 8.52807 8.52807 8.52807 8.52807 9.49655 9.49655 9.49655 9.49655 7.35673 7.35673 7.35673 7.35673 9.58605 9.58605 9.58605 9.58605 9.11687 9.11687 9.11687 9.11687 7.92846 7.92846 7.92846 7.92846 9.63209 9.63209 9.63209 9.63209 9.32787 9.32787 9.32787 9.32787 9.38571 9.38571 9.38571 9.38571 9.65042 9.65042 9.65042 9.65042 9.06298 9.06298 9.06298 9.06298 9.56296 9.56296 9.56296 9.56296 9.94525 9.94525 9.94525 9.94525 9.60762 9.60762 9.60762 9.60762 9.51005 9.51005 9.51005 9.51005 9.73737 9.73737 9.73737 9.73737 9.8123 9.8123 9.8123 9.8123 9.5961 9.5961 9.5961 9.5961 9.61308 9.61308 9.61308 9.61308 9.80835 9.80835 9.80835 9.80835 9.31994 9.31994 9.31994 9.31994 8.52622 8.52622 8.52622 8.52622 9.4098 9.4098 9.4098 9.4098 9.64853 9.64853 9.64853 9.64853 10.0934 10.0934 10.0934 10.0934 9.92648 9.92648 9.92648 9.92648 9.60346 9.60346 9.60346 9.60346 2.77744 2.77744 2.77744 2.77744 9.64698 9.64698 9.64698 9.64698 9.60272 9.60272 9.60272 9.60272 9.25944 9.25944 9.25944 9.25944 9.51104 9.51104 9.51104 9.51104 9.25978 9.25978 9.25978 9.25978 9.83473 9.83473 9.83473 9.83473 9.60812 9.60812 9.60812 9.60812 9.14929 9.14929 9.14929 9.14929 9.6733 9.6733 9.6733 9.6733 9.46304 9.46304 9.46304 9.46304 9.4976 9.4976 9.4976 9.4976 9.79997 9.79997 9.79997 9.79997 9.59323 9.59323 9.59323 9.59323 9.53051 9.53051 9.53051 9.53051 9.54589 9.54589 9.54589 9.54589 9.31746 9.31746 9.31746 9.31746 9.67665 9.67665 9.67665 9.67665 7.98809 7.98809 7.98809 7.98809 9.7733 9.7733 9.7733 9.7733 9.59043 9.59043 9.59043 9.59043 9.79265 9.79265 9.79265 9.79265 9.30692 9.30692 9.30692 9.30692 9.40265 9.40265 9.40265 9.40265 9.76348 9.76348 9.76348 9.76348 9.37396 9.37396 9.37396 9.37396 9.61101 9.61101 9.61101 9.61101 9.6336 9.6336 9.6336 9.6336 9.54194 9.54194 9.54194 9.54194 9.46075 9.46075 9.46075 9.46075 9.61336 9.61336 9.61336 9.61336 8.70546 8.70546 8.70546 8.70546 9.85043 9.85043 9.85043 9.85043 9.61117 9.61117 9.61117 9.61117 9.20684 9.20684 9.20684 9.20684 9.47481 9.47481 9.47481 9.47481 9.62591 9.62591 9.62591 9.62591 10.2989 10.2989 10.2989 10.2989 9.85869 9.85869 9.85869 9.85869 9.86154 9.86154 9.86154 9.86154 9.5347 9.5347 9.5347 9.5347 9.83345 9.83345 9.83345 9.83345 9.2374 9.2374 9.2374 9.2374 9.67384 9.67384 9.67384 9.67384 9.8229 9.8229 9.8229 9.8229 9.19787 9.19787 9.19787 9.19787 8.15834 8.15834 8.15834 8.15834 9.86777 9.86777 9.86777 9.86777 9.22375 9.22375 9.22375 9.22375 9.82104 9.82104 9.82104 9.82104 9.57474 9.57474 9.57474 9.57474 9.63795 9.63795 9.63795 9.63795 9.91165 9.91165 9.91165 9.91165 7.7192 7.7192 7.7192 7.7192 9.43635 9.43635 9.43635 9.43635 9.48682 9.48682 9.48682 9.48682 9.57757 9.57757 9.57757 9.57757 9.28845 9.28845 9.28845 9.28845 9.37475 9.37475 9.37475 9.37475 9.09945 9.09945 9.09945 9.09945 9.28618 9.28618 9.28618 9.28618 9.34628 9.34628 9.34628 9.34628 9.60349 9.60349 9.60349 9.60349 9.59005 9.59005 9.59005 9.59005 8.85207 8.85207 8.85207 8.85207 9.31472 9.31472 9.31472 9.31472 8.22357 8.22357 8.22357 8.22357 9.31779 9.31779 9.31779 9.31779 9.31989 9.31989 9.31989 9.31989 8.21445 8.21445 8.21445 8.21445 9.72826 9.72826 9.72826 9.72826 9.84995 9.84995 9.84995 9.84995 7.81391 7.81391 7.81391 7.81391 9.34292 9.34292 9.34292 9.34292 9.60035 9.60035 9.60035 9.60035 9.54102 9.54102 9.54102 9.54102 9.71349 9.71349 9.71349 9.71349 9.27775 9.27775 9.27775 9.27775 9.53943 9.53943 9.53943 9.53943 9.81277 9.81277 9.81277 9.81277 9.74476 9.74476 9.74476 9.74476 9.57618 9.57618 9.57618 9.57618 9.57021 9.57021 9.57021 9.57021 9.53322 9.53322 9.53322 9.53322 9.60118 9.60118 9.60118 9.60118 9.51447 9.51447 9.51447 9.51447 8.96641 8.96641 8.96641 8.96641 9.28002 9.28002 9.28002 9.28002 9.4998 9.4998 9.4998 9.4998 10.1865 10.1865 10.1865 10.1865 9.82567 9.82567 9.82567 9.82567 9.39103 9.39103 9.39103 9.39103 9.38356 9.38356 9.38356 9.38356 9.0564 9.0564 9.0564 9.0564 9.62361 9.62361 9.62361 9.62361 9.41847 9.41847 9.41847 9.41847 9.84109 9.84109 9.84109 9.84109 9.94492 9.94492 9.94492 9.94492 9.47639 9.47639 9.47639 9.47639 9.84016 9.84016 9.84016 9.84016 9.8447 9.8447 9.8447 9.8447 6.88004 6.88004 6.88004 6.88004 8.60172 8.60172 8.60172 8.60172 9.67244 9.67244 9.67244 9.67244 9.43202 9.43202 9.43202 9.43202 9.50338 9.50338 9.50338 9.50338 9.45296 9.45296 9.45296 9.45296 9.80268 9.80268 9.80268 9.80268 9.53552 9.53552 9.53552 9.53552 9.65237 9.65237 9.65237 9.65237 9.45701 9.45701 9.45701 9.45701 9.59157 9.59157 9.59157 9.59157 9.64939 9.64939 9.64939 9.64939 9.63003 9.63003 9.63003 9.63003 9.71024 9.71024 9.71024 9.71024 9.46664 9.46664 9.46664 9.46664 9.52511 9.52511 9.52511 9.52511 9.74042 9.74042 9.74042 9.74042 9.76726 9.76726 9.76726 9.76726 9.93206 9.93206 9.93206 9.93206 9.51864 9.51864 9.51864 9.51864 9.59289 9.59289 9.59289 9.59289 9.69896 9.69896 9.69896 9.69896 9.78063 9.78063 9.78063 9.78063 9.37747 9.37747 9.37747 9.37747 9.82804 9.82804 9.82804 9.82804 8.53826 8.53826 8.53826 8.53826 9.93911 9.93911 9.93911 9.93911 10.572 10.572 10.572 10.572 9.70328 9.70328 9.70328 9.70328 9.64119 9.64119 9.64119 9.64119 9.72442 9.72442 9.72442 9.72442 9.66489 9.66489 9.66489 9.66489 4.71041 4.71041 4.71041 4.71041 9.71006 9.71006 9.71006 9.71006 9.54745 9.54745 9.54745 9.54745 9.83961 9.83961 9.83961 9.83961 8.92649 8.92649 8.92649 8.92649 9.70584 9.70584 9.70584 9.70584 9.62229 9.62229 9.62229 9.62229 9.69795 9.69795 9.69795 9.69795 9.60582 9.60582 9.60582 9.60582 9.59316 9.59316 9.59316 9.59316 9.82297 9.82297 9.82297 9.82297 9.88849 9.88849 9.88849 9.88849 9.32528 9.32528 9.32528 9.32528 9.34278 9.34278 9.34278 9.34278 9.67443 9.67443 9.67443 9.67443 9.66425 9.66425 9.66425 9.66425 9.61382 9.61382 9.61382 9.61382 9.83709 9.83709 9.83709 9.83709 9.88343 9.88343 9.88343 9.88343 9.81859 9.81859 9.81859 9.81859 9.84898 9.84898 9.84898 9.84898 9.92349 9.92349 9.92349 9.92349 9.29848 9.29848 9.29848 9.29848 9.88895 9.88895 9.88895 9.88895 9.76807 9.76807 9.76807 9.76807 9.78614 9.78614 9.78614 9.78614 9.80091 9.80091 9.80091 9.80091 9.70773 9.70773 9.70773 9.70773 8.92655 8.92655 8.92655 8.92655 9.14455 9.14455 9.14455 9.14455 8.23551 8.23551 8.23551 8.23551 9.79302 9.79302 9.79302 9.79302 9.61849 9.61849 9.61849 9.61849 8.07692 8.07692 8.07692 8.07692 9.87792 9.87792 9.87792 9.87792 9.12659 9.12659 9.12659 9.12659 9.07248 9.07248 9.07248 9.07248 11.2916 11.2916 11.2916 11.2916 9.56134 9.56134 9.56134 9.56134 10.6238 10.6238 10.6238 10.6238 6.905 6.905 6.905 6.905 9.55209 9.55209 9.55209 9.55209 9.53443 9.53443 9.53443 9.53443 9.62634 9.62634 9.62634 9.62634 9.63136 9.63136 9.63136 9.63136 9.72691 9.72691 9.72691 9.72691 9.70928 9.70928 9.70928 9.70928 8.90669 8.90669 8.90669 8.90669 9.3252 9.3252 9.3252 9.3252 9.93185 9.93185 9.93185 9.93185 9.63755 9.63755 9.63755 9.63755 9.74181 9.74181 9.74181 9.74181 9.63626 9.63626 9.63626 9.63626 9.57738 9.57738 9.57738 9.57738 9.12065 9.12065 9.12065 9.12065 9.77949 9.77949 9.77949 9.77949 10.6301 10.6301 10.6301 10.6301 9.48181 9.48181 9.48181 9.48181 9.93794 9.93794 9.93794 9.93794 9.85632 9.85632 9.85632 9.85632 9.76137 9.76137 9.76137 9.76137 9.30631 9.30631 9.30631 9.30631 6.52601 6.52601 6.52601 6.52601 9.45044 9.45044 9.45044 9.45044 9.64448 9.64448 9.64448 9.64448 9.4897 9.4897 9.4897 9.4897 9.58847 9.58847 9.58847 9.58847 9.41454 9.41454 9.41454 9.41454 9.69224 9.69224 9.69224 9.69224 9.93881 9.93881 9.93881 9.93881 9.51012 9.51012 9.51012 9.51012 9.49782 9.49782 9.49782 9.49782 9.71278 9.71278 9.71278 9.71278 9.50816 9.50816 9.50816 9.50816 9.94301 9.94301 9.94301 9.94301 9.42207 9.42207 9.42207 9.42207 9.79346 9.79346 9.79346 9.79346 9.72251 9.72251 9.72251 9.72251 9.80631 9.80631 9.80631 9.80631 9.14136 9.14136 9.14136 9.14136 9.41511 9.41511 9.41511 9.41511 9.58143 9.58143 9.58143 9.58143 9.76137 9.76137 9.76137 9.76137 9.87315 9.87315 9.87315 9.87315 8.88816 8.88816 8.88816 8.88816 9.16022 9.16022 9.16022 9.16022 9.29787 9.29787 9.29787 9.29787 5.38566 5.38566 5.38566 5.38566 5.75893 5.75893 5.75893 5.75893 12.126 12.126 12.126 12.126 9.60289 9.60289 9.60289 9.60289 6.47717 6.47717 6.47717 6.47717 9.83033 9.83033 9.83033 9.83033 9.87253 9.87253 9.87253 9.87253 9.58708 9.58708 9.58708 9.58708 9.08422 9.08422 9.08422 9.08422 9.26979 9.26979 9.26979 9.26979 11.0211 11.0211 11.0211 11.0211 9.93031 9.93031 9.93031 9.93031 9.88048 9.88048 9.88048 9.88048 9.41052 9.41052 9.41052 9.41052 9.44391 9.44391 9.44391 9.44391 9.711 9.711 9.711 9.711 10.0458 10.0458 10.0458 10.0458 9.12634 9.12634 9.12634 9.12634 9.61171 9.61171 9.61171 9.61171 9.07318 9.07318 9.07318 9.07318 7.75299 7.75299 7.75299 7.75299 2.49614 2.49614 2.49614 2.49614 8.47989 8.47989 8.47989 8.47989 9.56486 9.56486 9.56486 9.56486 9.73934 9.73934 9.73934 9.73934 9.60726 9.60726 9.60726 9.60726 9.68202 9.68202 9.68202 9.68202 9.58097 9.58097 9.58097 9.58097 9.47992 9.47992 9.47992 9.47992 5.3146 5.3146 5.3146 5.3146 8.38689 8.38689 8.38689 8.38689 9.62448 9.62448 9.62448 9.62448 9.67129 9.67129 9.67129 9.67129 9.79854 9.79854 9.79854 9.79854 12.777 12.777 12.777 12.777 9.43563 9.43563 9.43563 9.43563 9.89499 9.89499 9.89499 9.89499 9.63859 9.63859 9.63859 9.63859 9.62838 9.62838 9.62838 9.62838 8.06421 8.06421 8.06421 8.06421 8.6431 8.6431 8.6431 8.6431 9.13158 9.13158 9.13158 9.13158 8.83684 8.83684 8.83684 8.83684 9.61235 9.61235 9.61235 9.61235 9.94345 9.94345 9.94345 9.94345 7.9803 7.9803 7.9803 7.9803 7.34798 7.34798 7.34798 7.34798 10.044 10.044 10.044 10.044 9.81094 9.81094 9.81094 9.81094 9.3959 9.3959 9.3959 9.3959 9.33184 9.33184 9.33184 9.33184 9.71949 9.71949 9.71949 9.71949 9.42233 9.42233 9.42233 9.42233 8.55087 8.55087 8.55087 8.55087 9.53816 9.53816 9.53816 9.53816 9.92224 9.92224 9.92224 9.92224 9.14218 9.14218 9.14218 9.14218 8.80938 8.80938 8.80938 8.80938 9.49003 9.49003 9.49003 9.49003 9.82726 9.82726 9.82726 9.82726 9.54273 9.54273 9.54273 9.54273 9.3285 9.3285 9.3285 9.3285 6.98042 6.98042 6.98042 6.98042 9.71012 9.71012 9.71012 9.71012 8.81462 8.81462 8.81462 8.81462 9.43386 9.43386 9.43386 9.43386 9.16232 9.16232 9.16232 9.16232 9.6091 9.6091 9.6091 9.6091 9.63576 9.63576 9.63576 9.63576 9.31357 9.31357 9.31357 9.31357 9.62416 9.62416 9.62416 9.62416 9.35096 9.35096 9.35096 9.35096 9.56891 9.56891 9.56891 9.56891 8.74718 8.74718 8.74718 8.74718 9.88309 9.88309 9.88309 9.88309 10.7062 10.7062 10.7062 10.7062 8.35089 8.35089 8.35089 8.35089 9.66129 9.66129 9.66129 9.66129 9.7227 9.7227 9.7227 9.7227 9.78519 9.78519 9.78519 9.78519 7.37059 7.37059 7.37059 7.37059 9.15399 9.15399 9.15399 9.15399 9.69717 9.69717 9.69717 9.69717 9.82083 9.82083 9.82083 9.82083 9.82869 9.82869 9.82869 9.82869 9.32157 9.32157 9.32157 9.32157 9.90122 9.90122 9.90122 9.90122 9.66817 9.66817 9.66817 9.66817 10.954 10.954 10.954 10.954 9.82594 9.82594 9.82594 9.82594 9.80801 9.80801 9.80801 9.80801 9.56721 9.56721 9.56721 9.56721 9.56592 9.56592 9.56592 9.56592 9.53714 9.53714 9.53714 9.53714 9.90259 9.90259 9.90259 9.90259 9.19957 9.19957 9.19957 9.19957 9.15029 9.15029 9.15029 9.15029 9.83406 9.83406 9.83406 9.83406 9.4245 9.4245 9.4245 9.4245 9.30389 9.30389 9.30389 9.30389 9.8903 9.8903 9.8903 9.8903 8.66036 8.66036 8.66036 8.66036 9.52119 9.52119 9.52119 9.52119 9.53712 9.53712 9.53712 9.53712 10.8236 10.8236 10.8236 10.8236 8.91973 8.91973 8.91973 8.91973 9.42119 9.42119 9.42119 9.42119 9.24931 9.24931 9.24931 9.24931 9.63042 9.63042 9.63042 9.63042 9.08284 9.08284 9.08284 9.08284 9.38362 9.38362 9.38362 9.38362 6.71106 6.71106 6.71106 6.71106 9.38852 9.38852 9.38852 9.38852 9.52231 9.52231 9.52231 9.52231 9.14853 9.14853 9.14853 9.14853 8.64107 8.64107 8.64107 8.64107 11.6849 11.6849 11.6849 11.6849 9.54704 9.54704 9.54704 9.54704 9.81989 9.81989 9.81989 9.81989 9.35934 9.35934 9.35934 9.35934 8.02068 8.02068 8.02068 8.02068 6.56103 6.56103 6.56103 6.56103 9.78941 9.78941 9.78941 9.78941 10.2952 10.2952 10.2952 10.2952 9.61361 9.61361 9.61361 9.61361 9.82269 9.82269 9.82269 9.82269 9.33952 9.33952 9.33952 9.33952 9.71159 9.71159 9.71159 9.71159 10.1079 10.1079 10.1079 10.1079 9.79462 9.79462 9.79462 9.79462 9.70183 9.70183 9.70183 9.70183 9.1901 9.1901 9.1901 9.1901 9.95797 9.95797 9.95797 9.95797 8.99148 8.99148 8.99148 8.99148 8.66912 8.66912 8.66912 8.66912 9.50426 9.50426 9.50426 9.50426 9.54784 9.54784 9.54784 9.54784 8.816 8.816 8.816 8.816 9.20939 9.20939 9.20939 9.20939 5.34869 5.34869 5.34869 5.34869 9.84973 9.84973 9.84973 9.84973 9.30581 9.30581 9.30581 9.30581 5.19104 5.19104 5.19104 5.19104 9.73616 9.73616 9.73616 9.73616 9.82405 9.82405 9.82405 9.82405 11.0425 11.0425 11.0425 11.0425 9.58253 9.58253 9.58253 9.58253 7.15143 7.15143 7.15143 7.15143 9.91803 9.91803 9.91803 9.91803 9.64562 9.64562 9.64562 9.64562 9.36055 9.36055 9.36055 9.36055 9.48955 9.48955 9.48955 9.48955 9.77837 9.77837 9.77837 9.77837 9.81364 9.81364 9.81364 9.81364 9.26906 9.26906 9.26906 9.26906 7.87301 7.87301 7.87301 7.87301 9.73091 9.73091 9.73091 9.73091 8.67145 8.67145 8.67145 8.67145 8.07424 8.07424 8.07424 8.07424 9.6575 9.6575 9.6575 9.6575 9.59969 9.59969 9.59969 9.59969 9.90285 9.90285 9.90285 9.90285 5.95795 5.95795 5.95795 5.95795 8.55758 8.55758 8.55758 8.55758 9.5594 9.5594 9.5594 9.5594 9.30595 9.30595 9.30595 9.30595 5.39419 5.39419 5.39419 5.39419 9.57182 9.57182 9.57182 9.57182 9.24887 9.24887 9.24887 9.24887 9.50246 9.50246 9.50246 9.50246 6.92974 6.92974 6.92974 6.92974 9.41096 9.41096 9.41096 9.41096 9.02777 9.02777 9.02777 9.02777 8.39323 8.39323 8.39323 8.39323 9.29423 9.29423 9.29423 9.29423 9.53908 9.53908 9.53908 9.53908 9.5622 9.5622 9.5622 9.5622 9.71054 9.71054 9.71054 9.71054 8.71305 8.71305 8.71305 8.71305 9.2642 9.2642 9.2642 9.2642 9.86424 9.86424 9.86424 9.86424 9.65847 9.65847 9.65847 9.65847 9.62306 9.62306 9.62306 9.62306 11.2556 11.2556 11.2556 11.2556 9.51635 9.51635 9.51635 9.51635 9.06647 9.06647 9.06647 9.06647 9.90956 9.90956 9.90956 9.90956 10.4324 10.4324 10.4324 10.4324 9.64357 9.64357 9.64357 9.64357 9.843 9.843 9.843 9.843 8.81129 8.81129 8.81129 8.81129 9.93074 9.93074 9.93074 9.93074 9.8699 9.8699 9.8699 9.8699 9.8904 9.8904 9.8904 9.8904 9.79686 9.79686 9.79686 9.79686 9.68925 9.68925 9.68925 9.68925 9.51556 9.51556 9.51556 9.51556 9.51964 9.51964 9.51964 9.51964 8.67021 8.67021 8.67021 8.67021 9.78328 9.78328 9.78328 9.78328 5.08066 5.08066 5.08066 5.08066 2.5737 2.5737 2.5737 2.5737 9.69004 9.69004 9.69004 9.69004 9.87493 9.87493 9.87493 9.87493 9.13594 9.13594 9.13594 9.13594 9.1642 9.1642 9.1642 9.1642 4.63194 4.63194 4.63194 4.63194 10.09 10.09 10.09 10.09 9.69253 9.69253 9.69253 9.69253 9.94545 9.94545 9.94545 9.94545 8.73827 8.73827 8.73827 8.73827 8.48196 8.48196 8.48196 8.48196 9.67225 9.67225 9.67225 9.67225 9.76403 9.76403 9.76403 9.76403 9.43189 9.43189 9.43189 9.43189 8.33581 8.33581 8.33581 8.33581 9.35139 9.35139 9.35139 9.35139 9.64734 9.64734 9.64734 9.64734 11.5294 11.5294 11.5294 11.5294 8.90264 8.90264 8.90264 8.90264 9.73355 9.73355 9.73355 9.73355 9.2449 9.2449 9.2449 9.2449 9.81472 9.81472 9.81472 9.81472 9.95746 9.95746 9.95746 9.95746 9.84675 9.84675 9.84675 9.84675 9.55226 9.55226 9.55226 9.55226 10.094 10.094 10.094 10.094 9.27869 9.27869 9.27869 9.27869 9.57186 9.57186 9.57186 9.57186 9.94866 9.94866 9.94866 9.94866 9.45992 9.45992 9.45992 9.45992 9.74071 9.74071 9.74071 9.74071 9.8897 9.8897 9.8897 9.8897 9.4712 9.4712 9.4712 9.4712 9.5308 9.5308 9.5308 9.5308 9.74595 9.74595 9.74595 9.74595 9.20065 9.20065 9.20065 9.20065 8.8664 8.8664 8.8664 8.8664 10.5191 10.5191 10.5191 10.5191 9.27015 9.27015 9.27015 9.27015 9.17002 9.17002 9.17002 9.17002 9.49032 9.49032 9.49032 9.49032 9.45462 9.45462 9.45462 9.45462 9.61249 9.61249 9.61249 9.61249 9.844 9.844 9.844 9.844 9.65015 9.65015 9.65015 9.65015 9.85065 9.85065 9.85065 9.85065 8.1942 8.1942 8.1942 8.1942 9.02324 9.02324 9.02324 9.02324 9.96148 9.96148 9.96148 9.96148 8.70838 8.70838 8.70838 8.70838 9.44658 9.44658 9.44658 9.44658 9.51417 9.51417 9.51417 9.51417 9.50135 9.50135 9.50135 9.50135 9.43645 9.43645 9.43645 9.43645 9.21554 9.21554 9.21554 9.21554 9.43431 9.43431 9.43431 9.43431 9.38391 9.38391 9.38391 9.38391 9.37568 9.37568 9.37568 9.37568 10.3984 10.3984 10.3984 10.3984 9.44407 9.44407 9.44407 9.44407 7.85627 7.85627 7.85627 7.85627 9.71647 9.71647 9.71647 9.71647 9.55603 9.55603 9.55603 9.55603 9.62235 9.62235 9.62235 9.62235 9.80748 9.80748 9.80748 9.80748 9.88888 9.88888 9.88888 9.88888 5.82545 5.82545 5.82545 5.82545 9.77167 9.77167 9.77167 9.77167 8.94187 8.94187 8.94187 8.94187 9.01406 9.01406 9.01406 9.01406 9.30826 9.30826 9.30826 9.30826 9.83328 9.83328 9.83328 9.83328 9.69194 9.69194 9.69194 9.69194 10.8268 10.8268 10.8268 10.8268 8.79002 8.79002 8.79002 8.79002 9.82135 9.82135 9.82135 9.82135 9.93903 9.93903 9.93903 9.93903 8.93123 8.93123 8.93123 8.93123 9.50207 9.50207 9.50207 9.50207 8.83866 8.83866 8.83866 8.83866