# vtk DataFile Version 3.0
vtk output
ASCII
DATASET UNSTRUCTURED_GRID
POINTS 23076 float
0.373696	-0.332191	0.334057	
0.304682	-0.199557	0.252634	
0.224653	-0.281756	0.300179	
0.340228	-0.209884	0.396212	
0.0966642	-0.131711	0.5	
0.0733876	-0.0824124	0.5	
0.0936941	-0.0576924	0.420616	
0.00727488	-0.125574	0.43338	
0.259808	0.15	0.5	
0.199563	0.20121	0.405215	
0.259073	0.206972	0.5	
0.316151	0.221929	0.385283	
0.369217	0.203769	0.5	
0.439458	0.238488	0.424308	
0.364062	0.132817	0.5	
0.316151	0.221929	0.385283	
-0.0732624	-0.0235498	0.355778	
-0.115691	-0.0468978	0.268322	
-0.166197	0.012686	0.395566	
-0.12302	0.073304	0.350874	
0.00155464	-0.188347	0.5	
-0.0829946	-0.232421	0.403465	
-0.00915007	-0.159584	0.370443	
0.0645865	-0.210943	0.409687	
0.169238	0.138503	0.5	
0.118461	0.161044	0.5	
0.199563	0.20121	0.405215	
0.10136	0.102523	0.406019	
0.373696	-0.332191	0.334057	
0.224653	-0.281756	0.300179	
0.270471	-0.290437	0.402527	
0.340228	-0.209884	0.396212	
-0.162023	-0.339511	0.25028	
-0.285188	-0.256019	0.23904	
-0.188087	-0.23341	0.313651	
-0.183468	-0.187607	0.160733	
0.00155464	-0.188347	0.5	
-0.00915007	-0.159584	0.370443	
-0.0497612	-0.177788	0.5	
0.00727488	-0.125574	0.43338	
-0.188087	-0.23341	0.313651	
-0.162023	-0.339511	0.25028	
-0.183468	-0.187607	0.160733	
-0.10857	-0.188319	0.218241	
0.0966642	-0.131711	0.5	
0.035935	-0.11426	0.5	
0.0733876	-0.0824124	0.5	
0.00727488	-0.125574	0.43338	
-0.115841	0.288513	0.162892	
-0.213184	0.322526	0.106779	
-0.234922	0.307887	0.237464	
-0.0810467	0.370121	0.206864	
-0.15	0.259808	0.5	
-0.1997	0.206062	0.414424	
-0.192123	0.259903	0.5	
-0.173891	0.340446	0.398741	
-0.256554	0.429162	0.331268	
-0.222708	0.258636	0.344999	
-0.234922	0.307887	0.237464	
-0.173891	0.340446	0.398741	
0.236451	-0.193336	0.377474	
0.224653	-0.281756	0.300179	
0.304682	-0.199557	0.252634	
0.340228	-0.209884	0.396212	
0.259808	0.15	0.5	
0.199563	0.20121	0.405215	
0.316151	0.221929	0.385283	
0.228063	0.102246	0.400094	
0.450285	0.217356	0.355302	
0.324629	0.108316	0.364447	
0.316151	0.221929	0.385283	
0.329012	0.224405	0.280196	
-0.373696	0.332191	0.334057	
-0.222708	0.258636	0.344999	
-0.321766	0.212706	0.386222	
-0.304187	0.215745	0.266633	
-0.259032	0.225769	0.154918	
-0.304187	0.215745	0.266633	
-0.428104	0.258315	0.196896	
-0.364452	0.121056	0.219309	
-0.0732624	-0.0235498	0.355778	
-0.104233	0.0522254	0.274426	
-0.115691	-0.0468978	0.268322	
-0.12302	0.073304	0.350874	
0.254347	-0.100565	0.163493	
0.163856	-0.062131	0.265284	
0.092572	-0.0674004	0.167448	
0.113524	-0.1522	0.202868	
-0.132465	0.342544	0.286862	
-0.234922	0.307887	0.237464	
-0.222708	0.258636	0.344999	
-0.173891	0.340446	0.398741	
0.476114	0.152694	0.40246	
0.324629	0.108316	0.364447	
0.364062	0.132817	0.5	
0.316151	0.221929	0.385283	
-0.373696	0.332191	0.334057	
-0.321766	0.212706	0.386222	
-0.222708	0.258636	0.344999	
-0.281262	0.296575	0.411781	
0.0966642	-0.131711	0.5	
0.128497	-0.139894	0.387724	
0.0645865	-0.210943	0.409687	
0.0558806	-0.119121	0.374407	
-0.0509221	-0.120838	0.250106	
-0.0272885	-0.0825315	0.132744	
0.0255949	-0.0865848	0.221929	
-0.00830008	-0.198671	0.244345	
-0.0732624	-0.0235498	0.355778	
-0.056943	0.120887	0.354229	
-0.0790952	0.0620487	0.41859	
0.00171532	0.0670635	0.305226	
0.476114	0.152694	0.40246	
0.364062	0.132817	0.5	
0.439458	0.238488	0.424308	
0.316151	0.221929	0.385283	
-0.318983	0.261743	0	
-0.259032	0.225769	0.154918	
-0.385896	0.317937	0.065638	
-0.326028	0.142215	0.11299	
-0.166197	0.012686	0.395566	
-0.115691	-0.0468978	0.268322	
-0.0732624	-0.0235498	0.355778	
-0.143954	-0.0664954	0.366375	
0.096294	0.191774	0.363276	
0.199563	0.20121	0.405215	
0.118461	0.161044	0.5	
0.10136	0.102523	0.406019	
0.0966642	-0.131711	0.5	
0.0936941	-0.0576924	0.420616	
0.128497	-0.139894	0.387724	
0.0558806	-0.119121	0.374407	
-0.216377	0.228686	0.5	
-0.249565	0.273325	0.5	
-0.192123	0.259903	0.5	
-0.1997	0.206062	0.414424	
0.0420691	0.427134	0	
0.0704482	0.495012	0.0718447	
0.0214814	0.353326	0.153644	
0.145858	0.357927	0.135369	
-0.192123	0.259903	0.5	
-0.173891	0.340446	0.398741	
-0.1997	0.206062	0.414424	
-0.281262	0.296575	0.411781	
0.232997	-0.11062	0	
0.245477	-0.191651	0	
0.254347	-0.100565	0.163493	
0.164655	-0.11934	0.10185	
0.0966642	-0.131711	0.5	
0.0645865	-0.210943	0.409687	
0.00727488	-0.125574	0.43338	
0.0558806	-0.119121	0.374407	
-0.26105	0.203399	0	
-0.170195	0.225746	0.0963396	
-0.259032	0.225769	0.154918	
-0.215195	0.0857371	0.0917705	
-0.0732624	-0.0235498	0.355778	
-0.0790952	0.0620487	0.41859	
-0.056943	0.120887	0.354229	
-0.12302	0.073304	0.350874	
0.00155464	-0.188347	0.5	
-0.0497612	-0.177788	0.5	
-0.00915007	-0.159584	0.370443	
-0.0829946	-0.232421	0.403465	
-0.222708	0.258636	0.344999	
-0.173891	0.340446	0.398741	
-0.256554	0.429162	0.331268	
-0.281262	0.296575	0.411781	
0.165128	-0.182854	0.275544	
0.224653	-0.281756	0.300179	
0.155319	-0.32739	0.22804	
0.227664	-0.175808	0.20875	
-0.00915007	-0.159584	0.370443	
-0.0688906	-0.12049	0.417622	
-0.0497612	-0.177788	0.5	
0.00727488	-0.125574	0.43338	
-0.216377	0.228686	0.5	
-0.259808	0.2	0.5	
-0.249565	0.273325	0.5	
-0.1997	0.206062	0.414424	
-0.222708	0.258636	0.344999	
-0.304187	0.215745	0.266633	
-0.373696	0.332191	0.334057	
-0.234922	0.307887	0.237464	
0.0420691	0.427134	0	
0	0.5	0.1	
-0.0372406	0.417791	0	
-0.0809307	0.385403	0.109035	
-0.0983601	0.156434	0	
-0.0198097	0.25642	0.112647	
-0.128142	0.132022	0.124103	
-0.0250996	0.111886	0.106171	
-0.107964	-0.347419	0.364155	
-0.0741769	-0.222661	0.29905	
0.0093178	-0.302179	0.302179	
-0.0510822	-0.382345	0.237039	
-0.0732624	-0.0235498	0.355778	
0.00171532	0.0670635	0.305226	
-0.0790952	0.0620487	0.41859	
0.0015496	-0.0106233	0.342921	
-0.128142	0.132022	0.124103	
-0.0198097	0.25642	0.112647	
-0.0983601	0.156434	0	
-0.170195	0.225746	0.0963396	
0.0966642	-0.131711	0.5	
0.00727488	-0.125574	0.43338	
0.0936941	-0.0576924	0.420616	
0.0558806	-0.119121	0.374407	
0.450285	0.217356	0.355302	
0.324629	0.108316	0.364447	
0.476114	0.152694	0.40246	
0.316151	0.221929	0.385283	
0.0594834	0.18279	0.5	
0.0609049	0.128365	0.5	
0.0101256	0.127322	0.41346	
0.10136	0.102523	0.406019	
0.245477	-0.191651	0	
0.313473	-0.209952	0.12238	
0.254347	-0.100565	0.163493	
0.164655	-0.11934	0.10185	
0.0486433	-0.215998	0.178276	
0.0255949	-0.0865848	0.221929	
-0.0272885	-0.0825315	0.132744	
-0.00830008	-0.198671	0.244345	
0.374193	0.331632	0.334643	
0.316151	0.221929	0.385283	
0.24627	0.285293	0.404112	
0.329012	0.224405	0.280196	
0.155716	-0.12147	0.5	
0.0966642	-0.131711	0.5	
0.120744	-0.0747732	0.5	
0.182789	-0.109466	0.430518	
-0.230549	-0.284648	0.130866	
-0.183468	-0.187607	0.160733	
-0.0974804	-0.267818	0.168751	
-0.127253	-0.156126	0.0844713	
0.304682	-0.199557	0.252634	
0.340228	-0.209884	0.396212	
0.373696	-0.332191	0.334057	
0.373857	-0.180895	0.313411	
0.236451	-0.193336	0.377474	
0.270471	-0.290437	0.402527	
0.224653	-0.281756	0.300179	
0.340228	-0.209884	0.396212	
0.0884767	-0.000375704	0.258795	
0.125478	0.130999	0.17652	
0.07775	0.0966917	0.259619	
0.172939	0.0245765	0.250039	
-0.056943	0.120887	0.354229	
0.00171532	0.0670635	0.305226	
-0.0732624	-0.0235498	0.355778	
-0.12302	0.073304	0.350874	
0.0594834	0.18279	0.5	
0.0101256	0.127322	0.41346	
0.096294	0.191774	0.363276	
0.10136	0.102523	0.406019	
0.0420691	0.427134	0	
0.0214814	0.353326	0.153644	
0	0.5	0.1	
-0.0809307	0.385403	0.109035	
-0.261227	-0.0514885	0.117995	
-0.12546	0.0336645	0.0931586	
-0.152331	-0.0811942	0.14549	
-0.0957928	-0.0529556	0.0773873	
-0.2429	0.437035	0.152631	
-0.234922	0.307887	0.237464	
-0.213184	0.322526	0.106779	
-0.0810467	0.370121	0.206864	
-0.0974804	-0.267818	0.168751	
0.0390368	-0.27687	0.0931397	
0.0130711	-0.359241	0.13871	
-0.0562672	-0.401453	0.0877238	
-0.0509221	-0.120838	0.250106	
-0.0272885	-0.0825315	0.132744	
-0.10857	-0.188319	0.218241	
-0.0599463	-0.0498399	0.20415	
-0.0974804	-0.267818	0.168751	
-0.183468	-0.187607	0.160733	
-0.162023	-0.339511	0.25028	
-0.10857	-0.188319	0.218241	
-0.385896	0.317937	0.065638	
-0.259032	0.225769	0.154918	
-0.318983	0.261743	0	
-0.213184	0.322526	0.106779	
-0.0509221	-0.120838	0.250106	
-0.0369979	-0.193764	0.104577	
-0.0272885	-0.0825315	0.132744	
-0.00830008	-0.198671	0.244345	
0.07775	0.0966917	0.259619	
0.139502	0.248001	0.286243	
0.096294	0.191774	0.363276	
0.162344	0.134607	0.350934	
-0.364452	0.121056	0.219309	
-0.385327	0.0355064	0.11322	
-0.361082	-0.0385179	0.234803	
-0.406264	0.0467051	0.292816	
0.221044	-0.17499	0.5	
0.273873	-0.116111	0.41418	
0.165128	-0.182854	0.433186	
0.182789	-0.109466	0.430518	
0.450285	0.217356	0.355302	
0.476114	0.152694	0.40246	
0.439458	0.238488	0.424308	
0.316151	0.221929	0.385283	
0.0486433	-0.215998	0.178276	
0.162218	-0.333858	0.109166	
0.155319	-0.32739	0.22804	
0.0390368	-0.27687	0.0931397	
0.00155464	-0.188347	0.5	
-0.0829946	-0.232421	0.403465	
0.0645865	-0.210943	0.409687	
0.000597841	-0.287345	0.400747	
0.0594834	0.18279	0.5	
0.096294	0.191774	0.363276	
0.118461	0.161044	0.5	
0.10136	0.102523	0.406019	
0.259808	0.15	0.5	
0.316151	0.221929	0.385283	
0.308042	0.167631	0.5	
0.228063	0.102246	0.400094	
0.328092	0.270243	0	
0.337502	0.1652	0.112737	
0.386505	0.317197	0.0688254	
0.227449	0.293019	0.0951933	
0.0966642	-0.131711	0.5	
0.0645865	-0.210943	0.409687	
0.0583087	-0.173273	0.5	
0.00727488	-0.125574	0.43338	
0.092572	-0.0674004	0.167448	
0.163856	-0.062131	0.265284	
0.254347	-0.100565	0.163493	
0.189715	-0.00503075	0.168338	
0.07775	0.0966917	0.259619	
0.186062	0.10988	0.269638	
0.139502	0.248001	0.286243	
0.162344	0.134607	0.350934	
0.351628	0.0194463	0.154597	
0.340356	0.131144	0.231324	
0.493389	0.0810399	0.14715	
0.391187	0.0843667	0.0902296	
0.450285	0.217356	0.355302	
0.470916	0.168043	0.300126	
0.324629	0.108316	0.364447	
0.329012	0.224405	0.280196	
0.00365932	0.104584	0.5	
0.0535528	0.0702068	0.5	
-0.00654379	0.0500762	0.5	
0.0101256	0.127322	0.41346	
-0.0790952	0.0620487	0.41859	
0.00171532	0.0670635	0.305226	
0.0293798	0.0426018	0.391106	
0.0015496	-0.0106233	0.342921	
[...]
CELL_DATA 5769
POINT_DATA 23076
SCALARS Pressure float 
LOOKUP_TABLE default
9.92868 9.92868 9.92868 9.92868 10.1609 10.1609 10.1609 10.1609 10.2749 10.2749 10.2749 10.2749 10.0744 10.0744 10.0744 10.0744 9.98942 9.98942 9.98942 9.98942 9.94515 9.94515 9.94515 9.94515 10.174 10.174 10.174 10.174 9.93116 9.93116 9.93116 9.93116 9.9316 9.9316 9.9316 9.9316 10.4077 10.4077 10.4077 10.4077 9.91951 9.91951 9.91951 9.91951 10.2168 10.2168 10.2168 10.2168 9.92557 9.92557 9.92557 9.92557 10.4592 10.4592 10.4592 10.4592 9.93544 9.93544 9.93544 9.93544 9.92933 9.92933 9.92933 9.92933 9.86535 9.86535 9.86535 9.86535 9.92425 9.92425 9.92425 9.92425 9.93476 9.93476 9.93476 9.93476 9.92838 9.92838 9.92838 9.92838 9.94081 9.94081 9.94081 9.94081 9.94256 9.94256 9.94256 9.94256 9.88205 9.88205 9.88205 9.88205 9.99085 9.99085 9.99085 9.99085 9.95255 9.95255 9.95255 9.95255 10.0457 10.0457 10.0457 10.0457 9.94011 9.94011 9.94011 9.94011 9.97909 9.97909 9.97909 9.97909 10.0187 10.0187 10.0187 10.0187 9.97081 9.97081 9.97081 9.97081 9.98157 9.98157 9.98157 9.98157 9.97777 9.97777 9.97777 9.97777 10.0217 10.0217 10.0217 10.0217 10.2701 10.2701 10.2701 10.2701 9.96151 9.96151 9.96151 9.96151 10.0067 10.0067 10.0067 10.0067 9.97998 9.97998 9.97998 9.97998 10.0998 10.0998 10.0998 10.0998 9.97092 9.97092 9.97092 9.97092 10.0062 10.0062 10.0062 10.0062 10.2006 10.2006 10.2006 10.2006 9.94623 9.94623 9.94623 9.94623 9.89798 9.89798 9.89798 9.89798 10.1794 10.1794 10.1794 10.1794 10.1742 10.1742 10.1742 10.1742 9.92912 9.92912 9.92912 9.92912 9.97792 9.97792 9.97792 9.97792 9.97134 9.97134 9.97134 9.97134 9.84945 9.84945 9.84945 9.84945 10.0037 10.0037 10.0037 10.0037 9.96797 9.96797 9.96797 9.96797 10.0599 10.0599 10.0599 10.0599 9.92371 9.92371 9.92371 9.92371 10.3303 10.3303 10.3303 10.3303 9.96403 9.96403 9.96403 9.96403 9.94405 9.94405 9.94405 9.94405 9.93122 9.93122 9.93122 9.93122 10.168 10.168 10.168 10.168 9.9602 9.9602 9.9602 9.9602 9.90903 9.90903 9.90903 9.90903 9.93539 9.93539 9.93539 9.93539 9.9523 9.9523 9.9523 9.9523 9.97649 9.97649 9.97649 9.97649 10.0801 10.0801 10.0801 10.0801 9.9624 9.9624 9.9624 9.9624 9.96765 9.96765 9.96765 9.96765 9.93459 9.93459 9.93459 9.93459 9.95794 9.95794 9.95794 9.95794 9.9423 9.9423 9.9423 9.9423 9.92493 9.92493 9.92493 9.92493 9.97247 9.97247 9.97247 9.97247 9.9525 9.9525 9.9525 9.9525 9.96057 9.96057 9.96057 9.96057 9.91577 9.91577 9.91577 9.91577 9.91779 9.91779 9.91779 9.91779 9.98825 9.98825 9.98825 9.98825 9.94002 9.94002 9.94002 9.94002 9.78958 9.78958 9.78958 9.78958 10.2511 10.2511 10.2511 10.2511 9.99782 9.99782 9.99782 9.99782 9.97493 9.97493 9.97493 9.97493 10.1829 10.1829 10.1829 10.1829 9.93921 9.93921 9.93921 9.93921 9.91697 9.91697 9.91697 9.91697 9.93563 9.93563 9.93563 9.93563 9.93368 9.93368 9.93368 9.93368 10.1756 10.1756 10.1756 10.1756 10.0152 10.0152 10.0152 10.0152 9.96325 9.96325 9.96325 9.96325 9.94805 9.94805 9.94805 9.94805 9.96701 9.96701 9.96701 9.96701 9.94128 9.94128 9.94128 9.94128 10.5128 10.5128 10.5128 10.5128 10.1698 10.1698 10.1698 10.1698 9.96249 9.96249 9.96249 9.96249 9.93747 9.93747 9.93747 9.93747 9.85926 9.85926 9.85926 9.85926 9.88574 9.88574 9.88574 9.88574 9.94101 9.94101 9.94101 9.94101 9.94909 9.94909 9.94909 9.94909 9.86378 9.86378 9.86378 9.86378 10.0116 10.0116 10.0116 10.0116 10.1469 10.1469 10.1469 10.1469 9.97793 9.97793 9.97793 9.97793 9.94357 9.94357 9.94357 9.94357 10.132 10.132 10.132 10.132 9.96616 9.96616 9.96616 9.96616 9.92873 9.92873 9.92873 9.92873 9.93553 9.93553 9.93553 9.93553 9.92086 9.92086 9.92086 9.92086 9.97596 9.97596 9.97596 9.97596 9.92827 9.92827 9.92827 9.92827 9.9435 9.9435 9.9435 9.9435 9.97391 9.97391 9.97391 9.97391 10.2718 10.2718 10.2718 10.2718 9.96018 9.96018 9.96018 9.96018 9.92133 9.92133 9.92133 9.92133 10.145 10.145 10.145 10.145 9.94098 9.94098 9.94098 9.94098 9.9361 9.9361 9.9361 9.9361 9.92327 9.92327 9.92327 9.92327 9.91884 9.91884 9.91884 9.91884 9.96354 9.96354 9.96354 9.96354 9.94048 9.94048 9.94048 9.94048 9.90687 9.90687 9.90687 9.90687 9.9562 9.9562 9.9562 9.9562 9.93351 9.93351 9.93351 9.93351 9.90658 9.90658 9.90658 9.90658 9.94989 9.94989 9.94989 9.94989 9.91186 9.91186 9.91186 9.91186 9.94081 9.94081 9.94081 9.94081 9.97378 9.97378 9.97378 9.97378 9.90868 9.90868 9.90868 9.90868 10.1691 10.1691 10.1691 10.1691 9.94127 9.94127 9.94127 9.94127 9.92374 9.92374 9.92374 9.92374 9.9772 9.9772 9.9772 9.9772 9.93891 9.93891 9.93891 9.93891 9.91511 9.91511 9.91511 9.91511 9.92126 9.92126 9.92126 9.92126 10.4498 10.4498 10.4498 10.4498 10.0078 10.0078 10.0078 10.0078 9.89804 9.89804 9.89804 9.89804 9.96843 9.96843 9.96843 9.96843 9.91309 9.91309 9.91309 9.91309 9.91803 9.91803 9.91803 9.91803 9.8771 9.8771 9.8771 9.8771 9.80552 9.80552 9.80552 9.80552 9.94252 9.94252 9.94252 9.94252 9.91417 9.91417 9.91417 9.91417 9.95002 9.95002 9.95002 9.95002 9.94776 9.94776 9.94776 9.94776 9.92227 9.92227 9.92227 9.92227 9.9788 9.9788 9.9788 9.9788 9.92698 9.92698 9.92698 9.92698 10.0248 10.0248 10.0248 10.0248 9.52516 9.52516 9.52516 9.52516 9.8955 9.8955 9.8955 9.8955 9.90714 9.90714 9.90714 9.90714 9.91577 9.91577 9.91577 9.91577 10.1185 10.1185 10.1185 10.1185 9.9481 9.9481 9.9481 9.9481 9.97115 9.97115 9.97115 9.97115 10.0986 10.0986 10.0986 10.0986 10.0485 10.0485 10.0485 10.0485 9.89912 9.89912 9.89912 9.89912 9.91585 9.91585 9.91585 9.91585 9.97347 9.97347 9.97347 9.97347 10.0736 10.0736 10.0736 10.0736 9.8973 9.8973 9.8973 9.8973 9.91535 9.91535 9.91535 9.91535 9.98025 9.98025 9.98025 9.98025 10.0225 10.0225 10.0225 10.0225 9.87281 9.87281 9.87281 9.87281 9.99063 9.99063 9.99063 9.99063 9.99152 9.99152 9.99152 9.99152 10.1023 10.1023 10.1023 10.1023 9.93093 9.93093 9.93093 9.93093 9.87366 9.87366 9.87366 9.87366 9.94378 9.94378 9.94378 9.94378 9.92111 9.92111 9.92111 9.92111 9.96467 9.96467 9.96467 9.96467 9.92366 9.92366 9.92366 9.92366 9.94803 9.94803 9.94803 9.94803 9.85654 9.85654 9.85654 9.85654 9.95508 9.95508 9.95508 9.95508 9.93768 9.93768 9.93768 9.93768 10.1908 10.1908 10.1908 10.1908 9.88723 9.88723 9.88723 9.88723 9.95938 9.95938 9.95938 9.95938 9.94424 9.94424 9.94424 9.94424 9.96977 9.96977 9.96977 9.96977 9.96166 9.96166 9.96166 9.96166 9.71143 9.71143 9.71143 9.71143 7.72419 7.72419 7.72419 7.72419 9.96668 9.96668 9.96668 9.96668 9.96918 9.96918 9.96918 9.96918 9.94976 9.94976 9.94976 9.94976 10.474 10.474 10.474 10.474 9.93518 9.93518 9.93518 9.93518 9.94047 9.94047 9.94047 9.94047 9.92453 9.92453 9.92453 9.92453 10.1197 10.1197 10.1197 10.1197 9.97191 9.97191 9.97191 9.97191 9.9571 9.9571 9.9571 9.9571 10.125 10.125 10.125 10.125 10.1088 10.1088 10.1088 10.1088 9.93234 9.93234 9.93234 9.93234 9.96211 9.96211 9.96211 9.96211 9.9524 9.9524 9.9524 9.9524 10.1381 10.1381 10.1381 10.1381 9.93377 9.93377 9.93377 9.93377 9.96932 9.96932 9.96932 9.96932 9.87023 9.87023 9.87023 9.87023 9.96044 9.96044 9.96044 9.96044 9.91141 9.91141 9.91141 9.91141 9.94739 9.94739 9.94739 9.94739 9.6899 9.6899 9.6899 9.6899 9.96039 9.96039 9.96039 9.96039 9.93509 9.93509 9.93509 9.93509 9.98457 9.98457 9.98457 9.98457 9.97549 9.97549 9.97549 9.97549 9.93985 9.93985 9.93985 9.93985 9.96721 9.96721 9.96721 9.96721 9.84589 9.84589 9.84589 9.84589 9.92533 9.92533 9.92533 9.92533 10.1229 10.1229 10.1229 10.1229 10.076 10.076 10.076 10.076 9.97673 9.97673 9.97673 9.97673 9.92915 9.92915 9.92915 9.92915 9.98543 9.98543 9.98543 9.98543 10.1055 10.1055 10.1055 10.1055 9.98354 9.98354 9.98354 9.98354 9.88495 9.88495 9.88495 9.88495 9.95643 9.95643 9.95643 9.95643 9.97506 9.97506 9.97506 9.97506 10.3044 10.3044 10.3044 10.3044 9.96361 9.96361 9.96361 9.96361 9.9023 9.9023 9.9023 9.9023 9.95906 9.95906 9.95906 9.95906 10.0565 10.0565 10.0565 10.0565 10.0499 10.0499 10.0499 10.0499 9.94099 9.94099 9.94099 9.94099 9.97451 9.97451 9.97451 9.97451 9.9319 9.9319 9.9319 9.9319 9.97896 9.97896 9.97896 9.97896 9.9387 9.9387 9.9387 9.9387 9.94111 9.94111 9.94111 9.94111 9.88567 9.88567 9.88567 9.88567 10.0124 10.0124 10.0124 10.0124 9.9696 9.9696 9.9696 9.9696 9.92127 9.92127 9.92127 9.92127 9.93761 9.93761 9.93761 9.93761 9.94842 9.94842 9.94842 9.94842 9.92041 9.92041 9.92041 9.92041 10.3569 10.3569 10.3569 10.3569 10.1077 10.1077 10.1077 10.1077 9.94797 9.94797 9.94797 9.94797 9.90795 9.90795 9.90795 9.90795 9.92295 9.92295 9.92295 9.92295 9.92667 9.92667 9.92667 9.92667 9.96731 9.96731 9.96731 9.96731 10.1641 10.1641 10.1641 10.1641 9.98255 9.98255 9.98255 9.98255 9.8864 9.8864 9.8864 9.8864 9.95385 9.95385 9.95385 9.95385 9.93176 9.93176 9.93176 9.93176 9.85709 9.85709 9.85709 9.85709 9.93825 9.93825 9.93825 9.93825 9.89039 9.89039 9.89039 9.89039 10.3324 10.3324 10.3324 10.3324 10.4294 10.4294 10.4294 10.4294 9.93988 9.93988 9.93988 9.93988 9.7554 9.7554 9.7554 9.7554 9.94996 9.94996 9.94996 9.94996 9.97835 9.97835 9.97835 9.97835 9.90531 9.90531 9.90531 9.90531 10.0498 10.0498 10.0498 10.0498 9.98075 9.98075 9.98075 9.98075 9.86661 9.86661 9.86661 9.86661 9.9414 9.9414 9.9414 9.9414 9.98549 9.98549 9.98549 9.98549 9.94493 9.94493 9.94493 9.94493 9.97686 9.97686 9.97686 9.97686 9.93755 9.93755 9.93755 9.93755 9.89035 9.89035 9.89035 9.89035 9.75281 9.75281 9.75281 9.75281 9.89878 9.89878 9.89878 9.89878 9.90253 9.90253 9.90253 9.90253 9.90388 9.90388 9.90388 9.90388 9.93078 9.93078 9.93078 9.93078 9.9788 9.9788 9.9788 9.9788 9.90939 9.90939 9.90939 9.90939 10.0487 10.0487 10.0487 10.0487 9.99089 9.99089 9.99089 9.99089 9.9034 9.9034 9.9034 9.9034 9.93547 9.93547 9.93547 9.93547 9.99298 9.99298 9.99298 9.99298 9.83523 9.83523 9.83523 9.83523 9.44897 9.44897 9.44897 9.44897 9.95884 9.95884 9.95884 9.95884 9.85619 9.85619 9.85619 9.85619 9.95976 9.95976 9.95976 9.95976 9.89213 9.89213 9.89213 9.89213 9.73321 9.73321 9.73321 9.73321 9.96623 9.96623 9.96623 9.96623 9.9796 9.9796 9.9796 9.9796 9.79862 9.79862 9.79862 9.79862 9.94756 9.94756 9.94756 9.94756 9.28694 9.28694 9.28694 9.28694 9.98992 9.98992 9.98992 9.98992 9.91553 9.91553 9.91553 9.91553 9.94149 9.94149 9.94149 9.94149 9.91703 9.91703 9.91703 9.91703 9.9707 9.9707 9.9707 9.9707 9.2505 9.2505 9.2505 9.2505 10.1219 10.1219 10.1219 10.1219 10.1737 10.1737 10.1737 10.1737 9.93173 9.93173 9.93173 9.93173 9.96706 9.96706 9.96706 9.96706 9.94757 9.94757 9.94757 9.94757 10.0308 10.0308 10.0308 10.0308 9.82882 9.82882 9.82882 9.82882 9.95243 9.95243 9.95243 9.95243 10.126 10.126 10.126 10.126 9.92104 9.92104 9.92104 9.92104 9.99193 9.99193 9.99193 9.99193 9.95484 9.95484 9.95484 9.95484 9.94143 9.94143 9.94143 9.94143 9.84764 9.84764 9.84764 9.84764 9.96521 9.96521 9.96521 9.96521 9.96572 9.96572 9.96572 9.96572 9.96199 9.96199 9.96199 9.96199 9.93781 9.93781 9.93781 9.93781 9.97216 9.97216 9.97216 9.97216 9.92547 9.92547 9.92547 9.92547 9.93624 9.93624 9.93624 9.93624 9.91639 9.91639 9.91639 9.91639 8.00214 8.00214 8.00214 8.00214 9.93143 9.93143 9.93143 9.93143 9.88524 9.88524 9.88524 9.88524 9.96586 9.96586 9.96586 9.96586 9.94167 9.94167 9.94167 9.94167 9.93326 9.93326 9.93326 9.93326 9.93022 9.93022 9.93022 9.93022 9.89741 9.89741 9.89741 9.89741 9.9511 9.9511 9.9511 9.9511 9.87693 9.87693 9.87693 9.87693 9.96085 9.96085 9.96085 9.96085 9.89418 9.89418 9.89418 9.89418 9.90952 9.90952 9.90952 9.90952 9.94825 9.94825 9.94825 9.94825 9.92214 9.92214 9.92214 9.92214 10.0437 10.0437 10.0437 10.0437 9.97601 9.97601 9.97601 9.97601 9.57382 9.57382 9.57382 9.57382 9.95296 9.95296 9.95296 9.95296 9.81183 9.81183 9.81183 9.81183 9.90528 9.90528 9.90528 9.90528 9.91574 9.91574 9.91574 9.91574 10.1631 10.1631 10.1631 10.1631 10.0822 10.0822 10.0822 10.0822 9.83218 9.83218 9.83218 9.83218 9.92951 9.92951 9.92951 9.92951 9.93019 9.93019 9.93019 9.93019 5.88484 5.88484 5.88484 5.88484 10.0266 10.0266 10.0266 10.0266 10.0752 10.0752 10.0752 10.0752 9.96074 9.96074 9.96074 9.96074 9.91969 9.91969 9.91969 9.91969 9.93642 9.93642 9.93642 9.93642 9.9473 9.9473 9.9473 9.9473 9.95885 9.95885 9.95885 9.95885 9.96241 9.96241 9.96241 9.96241 9.93416 9.93416 9.93416 9.93416 9.9437 9.9437 9.9437 9.9437 9.96957 9.96957 9.96957 9.96957 9.87477 9.87477 9.87477 9.87477 9.86871 9.86871 9.86871 9.86871 9.97737 9.97737 9.97737 9.97737 9.91581 9.91581 9.91581 9.91581 10.0293 10.0293 10.0293 10.0293 9.94356 9.94356 9.94356 9.94356 9.56819 9.56819 9.56819 9.56819 9.8265 9.8265 9.8265 9.8265 9.97149 9.97149 9.97149 9.97149 9.98669 9.98669 9.98669 9.98669 9.13739 9.13739 9.13739 9.13739 9.89651 9.89651 9.89651 9.89651 10.2468 10.2468 10.2468 10.2468 9.89144 9.89144 9.89144 9.89144 10.1881 10.1881 10.1881 10.1881 9.93919 9.93919 9.93919 9.93919 9.95684 9.95684 9.95684 9.95684 10.2578 10.2578 10.2578 10.2578 9.89861 9.89861 9.89861 9.89861 9.95975 9.95975 9.95975 9.95975 9.96485 9.96485 9.96485 9.96485 10.0733 10.0733 10.0733 10.0733 9.90941 9.90941 9.90941 9.90941 9.949 9.949 9.949 9.949 9.97299 9.97299 9.97299 9.97299 9.93493 9.93493 9.93493 9.93493 10.0234 10.0234 10.0234 10.0234 9.92547 9.92547 9.92547 9.92547 9.95567 9.95567 9.95567 9.95567 9.87925 9.87925 9.87925 9.87925 9.93613 9.93613 9.93613 9.93613 9.53069 9.53069 9.53069 9.53069 10.5377 10.5377 10.5377 10.5377 9.56993 9.56993 9.56993 9.56993 9.9617 9.9617 9.9617 9.9617 9.93608 9.93608 9.93608 9.93608 9.98263 9.98263 9.98263 9.98263 9.96978 9.96978 9.96978 9.96978 9.98154 9.98154 9.98154 9.98154 10.0945 10.0945 10.0945 10.0945 9.93982 9.93982 9.93982 9.93982 9.97308 9.97308 9.97308 9.97308 10.1269 10.1269 10.1269 10.1269 9.96176 9.96176 9.96176 9.96176 9.98996 9.98996 9.98996 9.98996 9.93104 9.93104 9.93104 9.93104 9.9486 9.9486 9.9486 9.9486 9.98023 9.98023 9.98023 9.98023 10.3294 10.3294 10.3294 10.3294 9.95554 9.95554 9.95554 9.95554 9.91126 9.91126 9.91126 9.91126 9.97285 9.97285 9.97285 9.97285 9.80177 9.80177 9.80177 9.80177 9.81337 9.81337 9.81337 9.81337 9.98315 9.98315 9.98315 9.98315 9.98421 9.98421 9.98421 9.98421 9.87355 9.87355 9.87355 9.87355 9.98453 9.98453 9.98453 9.98453 9.78802 9.78802 9.78802 9.78802 9.8359 9.8359 9.8359 9.8359 10.1541 10.1541 10.1541 10.1541 9.8833 9.8833 9.8833 9.8833 9.84518 9.84518 9.84518 9.84518 9.91696 9.91696 9.91696 9.91696 9.97836 9.97836 9.97836 9.97836 9.93539 9.93539 9.93539 9.93539 10.1153 10.1153 10.1153 10.1153 9.94163 9.94163 9.94163 9.94163 10.6758 10.6758 10.6758 10.6758 10.6257 10.6257 10.6257 10.6257 9.07343 9.07343 9.07343 9.07343 9.92727 9.92727 9.92727 9.92727 9.98308 9.98308 9.98308 9.98308 10.0774 10.0774 10.0774 10.0774 9.42673 9.42673 9.42673 9.42673 10.4341 10.4341 10.4341 10.4341 10.0875 10.0875 10.0875 10.0875 10.1851 10.1851 10.1851 10.1851 9.85301 9.85301 9.85301 9.85301 9.97773 9.97773 9.97773 9.97773 9.95977 9.95977 9.95977 9.95977 9.8841 9.8841 9.8841 9.8841 9.87254 9.87254 9.87254 9.87254 9.93289 9.93289 9.93289 9.93289 9.9413 9.9413 9.9413 9.9413 9.96277 9.96277 9.96277 9.96277 10.0423 10.0423 10.0423 10.0423 9.94545 9.94545 9.94545 9.94545 9.91643 9.91643 9.91643 9.91643 9.85409 9.85409 9.85409 9.85409 10.1354 10.1354 10.1354 10.1354 9.82398 9.82398 9.82398 9.82398 9.91539 9.91539 9.91539 9.91539 9.90952 9.90952 9.90952 9.90952 9.96465 9.96465 9.96465 9.96465 7.74168 7.74168 7.74168 7.74168 9.92622 9.92622 9.92622 9.92622 9.9595 9.9595 9.9595 9.9595 10.3563 10.3563 10.3563 10.3563 9.99021 9.99021 9.99021 9.99021 8.83 8.83 8.83 8.83 9.89114 9.89114 9.89114 9.89114 9.83812 9.83812 9.83812 9.83812 9.92494 9.92494 9.92494 9.92494 9.92197 9.92197 9.92197 9.92197 9.93445 9.93445 9.93445 9.93445 9.70648 9.70648 9.70648 9.70648 10.0062 10.0062 10.0062 10.0062 9.92441 9.92441 9.92441 9.92441 9.94358 9.94358 9.94358 9.94358 9.96387 9.96387 9.96387 9.96387 9.85966 9.85966 9.85966 9.85966 10.1252 10.1252 10.1252 10.1252 10.1863 10.1863 10.1863 10.1863 9.98505 9.98505 9.98505 9.98505 9.93274 9.93274 9.93274 9.93274 9.84432 9.84432 9.84432 9.84432 9.99206 9.99206 9.99206 9.99206 9.93462 9.93462 9.93462 9.93462 9.87765 9.87765 9.87765 9.87765 9.94161 9.94161 9.94161 9.94161 9.95096 9.95096 9.95096 9.95096 9.83851 9.83851 9.83851 9.83851 9.88746 9.88746 9.88746 9.88746 9.93221 9.93221 9.93221 9.93221 9.99402 9.99402 9.99402 9.99402 9.98332 9.98332 9.98332 9.98332 9.93055 9.93055 9.93055 9.93055 9.97271 9.97271 9.97271 9.97271 9.94755 9.94755 9.94755 9.94755 9.98151 9.98151 9.98151 9.98151 10.1373 10.1373 10.1373 10.1373 9.96234 9.96234 9.96234 9.96234 11.4576 11.4576 11.4576 11.4576 10.1244 10.1244 10.1244 10.1244 10.014 10.014 10.014 10.014 9.91484 9.91484 9.91484 9.91484 11.0081 11.0081 11.0081 11.0081 9.95022 9.95022 9.95022 9.95022 9.87656 9.87656 9.87656 9.87656 9.95901 9.95901 9.95901 9.95901 9.9195 9.9195 9.9195 9.9195 9.97809 9.97809 9.97809 9.97809 9.93231 9.93231 9.93231 9.93231 9.93107 9.93107 9.93107 9.93107 9.68787 9.68787 9.68787 9.68787 10.0941 10.0941 10.0941 10.0941 9.92227 9.92227 9.92227 9.92227 9.93914 9.93914 9.93914 9.93914 9.91839 9.91839 9.91839 9.91839 9.96474 9.96474 9.96474 9.96474 9.96392 9.96392 9.96392 9.96392 9.68949 9.68949 9.68949 9.68949 9.97561 9.97561 9.97561 9.97561 9.91128 9.91128 9.91128 9.91128 10.037 10.037 10.037 10.037 9.93439 9.93439 9.93439 9.93439 9.95282 9.95282 9.95282 9.95282 10.1251 10.1251 10.1251 10.1251 10.0503 10.0503 10.0503 10.0503 10.5649 10.5649 10.5649 10.5649 9.87621 9.87621 9.87621 9.87621 10.3349 10.3349 10.3349 10.3349 9.94198 9.94198 9.94198 9.94198 9.95799 9.95799 9.95799 9.95799 9.9473 9.9473 9.9473 9.9473 9.98579 9.98579 9.98579 9.98579 9.91816 9.91816 9.91816 9.91816 9.91327 9.91327 9.91327 9.91327 9.96095 9.96095 9.96095 9.96095 10.2286 10.2286 10.2286 10.2286 9.96038 9.96038 9.96038 9.96038 9.93806 9.93806 9.93806 9.93806 10.0899 10.0899 10.0899 10.0899 9.94831 9.94831 9.94831 9.94831 10.3125 10.3125 10.3125 10.3125 9.94821 9.94821 9.94821 9.94821 9.95873 9.95873 9.95873 9.95873 9.96094 9.96094 9.96094 9.96094 9.93928 9.93928 9.93928 9.93928 9.97235 9.97235 9.97235 9.97235 9.9599 9.9599 9.9599 9.9599 9.92318 9.92318 9.92318 9.92318 9.96277 9.96277 9.96277 9.96277 10.206 10.206 10.206 10.206 9.99568 9.99568 9.99568 9.99568 9.7958 9.7958 9.7958 9.7958 9.91077 9.91077 9.91077 9.91077 9.95463 9.95463 9.95463 9.95463 9.95428 9.95428 9.95428 9.95428 9.88213 9.88213 9.88213 9.88213 9.93154 9.93154 9.93154 9.93154 9.87012 9.87012 9.87012 9.87012 9.91741 9.91741 9.91741 9.91741 10.2533 10.2533 10.2533 10.2533 9.94852 9.94852 9.94852 9.94852 10.0259 10.0259 10.0259 10.0259 9.94035 9.94035 9.94035 9.94035 10.1711 10.1711 10.1711 10.1711 9.93952 9.93952 9.93952 9.93952 10.0205 10.0205 10.0205 10.0205 9.97853 9.97853 9.97853 9.97853 9.91024 9.91024 9.91024 9.91024 10.5081 10.5081 10.5081 10.5081 9.88922 9.88922 9.88922 9.88922 9.88541 9.88541 9.88541 9.88541 9.9661 9.9661 9.9661 9.9661 9.9752 9.9752 9.9752 9.9752 9.66062 9.66062 9.66062 9.66062 9.95953 9.95953 9.95953 9.95953 9.97378 9.97378 9.97378 9.97378 9.92961 9.92961 9.92961 9.92961 10.1126 10.1126 10.1126 10.1126 9.87861 9.87861 9.87861 9.87861 9.91609 9.91609 9.91609 9.91609 10.2021 10.2021 10.2021 10.2021 10.2277 10.2277 10.2277 10.2277 9.88256 9.88256 9.88256 9.88256 9.94487 9.94487 9.94487 9.94487 9.55531 9.55531 9.55531 9.55531 9.92063 9.92063 9.92063 9.92063 9.94963 9.94963 9.94963 9.94963 9.97596 9.97596 9.97596 9.97596 9.84246 9.84246 9.84246 9.84246 10.0103 10.0103 10.0103 10.0103 9.98323 9.98323 9.98323 9.98323 9.92362 9.92362 9.92362 9.92362 9.89749 9.89749 9.89749 9.89749 9.92306 9.92306 9.92306 9.92306 9.9706 9.9706 9.9706 9.9706 9.94848 9.94848 9.94848 9.94848 10.1367 10.1367 10.1367 10.1367 9.8989 9.8989 9.8989 9.8989 9.91529 9.91529 9.91529 9.91529 9.96649 9.96649 9.96649 9.96649 9.90811 9.90811 9.90811 9.90811 9.97311 9.97311 9.97311 9.97311 9.92774 9.92774 9.92774 9.92774 9.94413 9.94413 9.94413 9.94413 9.90349 9.90349 9.90349 9.90349 9.67536 9.67536 9.67536 9.67536 9.9387 9.9387 9.9387 9.9387 10.0861 10.0861 10.0861 10.0861 9.97276 9.97276 9.97276 9.97276 9.90715 9.90715 9.90715 9.90715 9.95607 9.95607 9.95607 9.95607 9.97247 9.97247 9.97247 9.97247 9.86652 9.86652 9.86652 9.86652 10.1319 10.1319 10.1319 10.1319 9.94573 9.94573 9.94573 9.94573 9.91339 9.91339 9.91339 9.91339 10.1614 10.1614 10.1614 10.1614 9.90675 9.90675 9.90675 9.90675 10.1508 10.1508 10.1508 10.