# vtk DataFile Version 3.0
vtk output
ASCII
DATASET UNSTRUCTURED_GRID
POINTS 17020 float
-0.18052	1.3078	0.334608	
-0.134745	1.19543	0.248773	
-0.0964049	1.37384	0.276475	
-0.0330822	1.21734	0.266884	
-0.00167925	1.31098	0.319981	
0.109201	1.35772	0.375246	
0.0814864	1.49332	0.347681	
-0.0552231	1.38907	0.38538	
0.164574	0.7464	0.211103	
0.121965	0.82524	0.342904	
0.206682	0.777113	0.400851	
0.215953	0.839226	0.238202	
-0.134745	1.19543	0.248773	
-0.156284	1.06551	0.149142	
-0.136328	1.19004	0.119282	
-0.0611059	1.11559	0.264866	
-0.0977967	0.509657	0.258774	
0.0452903	0.623513	0.25784	
-0.136534	0.645188	0.231761	
-0.039093	0.610067	0.388942	
0.0814864	1.49332	0.347681	
0.109201	1.35772	0.375246	
-0.00167925	1.31098	0.319981	
0.0196341	1.38361	0.225797	
-0.119993	1.24669	0	
-0.136328	1.19004	0.119282	
-0.0697093	1.32708	0.167311	
-0.153777	1.36779	0.103264	
-0.23296	0.961598	0.249877	
-0.193842	1.09373	0.257323	
-0.156284	1.06551	0.149142	
-0.256772	1.06769	0.100506	
0	1.25	0.5	
0.0902907	1.23506	0.376077	
-0.00173102	1.15684	0.347507	
-0.0850696	1.27829	0.394238	
-0.274228	1.15934	0.161857	
-0.279096	1.24359	0.272562	
-0.434698	1.24706	0.250499	
-0.364752	1.11394	0.23148	
-0.136534	0.645188	0.231761	
0.0452903	0.623513	0.25784	
0.00505532	0.706778	0.339312	
-0.039093	0.610067	0.388942	
-0.134745	1.19543	0.248773	
-0.0964049	1.37384	0.276475	
-0.0697093	1.32708	0.167311	
-0.193559	1.35773	0.245031	
-0.18052	1.3078	0.334608	
-0.0850696	1.27829	0.394238	
-0.134745	1.19543	0.248773	
-0.0330822	1.21734	0.266884	
0.209063	1.27717	0.342511	
0.109201	1.35772	0.375246	
0.25658	1.42915	0.33124	
0.212182	1.31459	0.219285	
-0.0697093	1.32708	0.167311	
-0.136328	1.19004	0.119282	
-0.119993	1.24669	0	
0.00439522	1.27731	0.103072	
-0.437078	1.24282	0.152991	
-0.434698	1.24706	0.250499	
-0.274228	1.15934	0.161857	
-0.279096	1.24359	0.272562	
-0.0697093	1.32708	0.167311	
-0.0964049	1.37384	0.276475	
-0.134745	1.19543	0.248773	
-0.0330822	1.21734	0.266884	
-0.138674	1.3238	0	
-0.119993	1.24669	0	
-0.0697093	1.32708	0.167311	
-0.153777	1.36779	0.103264	
0.164574	0.7464	0.211103	
0.121965	0.82524	0.342904	
0.151014	0.679593	0.343049	
0.206682	0.777113	0.400851	
0.388274	1.31503	0.420807	
0.281092	1.28109	0.5	
0.209063	1.27717	0.342511	
0.347642	1.19453	0.384775	
-0.23296	0.961598	0.249877	
-0.193842	1.09373	0.257323	
-0.256772	1.06769	0.100506	
-0.318838	1.02278	0.259668	
-0.18644	1.1823	0	
-0.136328	1.19004	0.119282	
-0.274228	1.15934	0.161857	
-0.256772	1.06769	0.100506	
-0.156284	1.06551	0.149142	
-0.0543483	1.10288	0.107179	
-0.136328	1.19004	0.119282	
-0.0611059	1.11559	0.264866	
-0.0555676	1.32557	0	
-0.138674	1.3238	0	
-0.119993	1.24669	0	
-0.0697093	1.32708	0.167311	
-0.00425413	1.131	0	
0.113965	1.18028	0.121768	
-0.00674902	1.18961	0.168493	
0.0593465	1.06716	0.10856	
-0.0697093	1.32708	0.167311	
-0.00674902	1.18961	0.168493	
-0.134745	1.19543	0.248773	
-0.136328	1.19004	0.119282	
0.226544	0.947552	0.250202	
0.325159	1.05851	0.165819	
0.208793	1.06331	0.266812	
0.378383	1.07129	0.271427	
-0.18052	1.3078	0.334608	
-0.0964049	1.37384	0.276475	
-0.0850696	1.27829	0.394238	
-0.0330822	1.21734	0.266884	
-0.26105	1.2034	0	
-0.257956	1.11632	0	
-0.18644	1.1823	0	
-0.274228	1.15934	0.161857	
-0.138674	1.3238	0	
-0.0697093	1.32708	0.167311	
-0.0555676	1.32557	0	
-0.153777	1.36779	0.103264	
-0.134745	1.19543	0.248773	
-0.136328	1.19004	0.119282	
-0.00674902	1.18961	0.168493	
-0.0611059	1.11559	0.264866	
-0.134745	1.19543	0.248773	
-0.0697093	1.32708	0.167311	
-0.210789	1.29041	0.168489	
-0.193559	1.35773	0.245031	
-0.5	1	0.3	
-0.382289	1.08918	0.382504	
-0.363598	0.972427	0.365583	
-0.318838	1.02278	0.259668	
-0.134745	1.19543	0.248773	
-0.18052	1.3078	0.334608	
-0.0964049	1.37384	0.276475	
-0.193559	1.35773	0.245031	
-0.00425413	1.131	0	
0.0651412	1.2001	0	
-0.00674902	1.18961	0.168493	
0.113965	1.18028	0.121768	
0.0461078	0.941573	0	
0.0712814	0.846848	0	
0.0937412	0.930011	0.154317	
-0.00436862	0.872297	0.154061	
-0.437078	1.24282	0.152991	
-0.274228	1.15934	0.161857	
-0.386792	1.31685	0.198616	
-0.279096	1.24359	0.272562	
-0.00425413	1.131	0	
0.0593465	1.06716	0.10856	
-0.00674902	1.18961	0.168493	
-0.0543483	1.10288	0.107179	
-0.0977967	0.509657	0.258774	
-0.136534	0.645188	0.231761	
-0.0297704	0.68077	0.178611	
-0.0982069	0.610875	0.136018	
-0.00173102	1.15684	0.347507	
0.125116	1.11613	0.369411	
0.0868435	1.13736	0.5	
-0.00748686	1.04315	0.386084	
-0.171353	0.530279	0.338334	
-0.0810399	0.506611	0.35285	
-0.136534	0.645188	0.231761	
-0.039093	0.610067	0.388942	
0.174678	1.4685	0.317109	
0.25658	1.42915	0.33124	
0.109201	1.35772	0.375246	
0.212182	1.31459	0.219285	
0.374193	1.33163	0.334643	
0.388274	1.31503	0.420807	
0.209063	1.27717	0.342511	
0.347642	1.19453	0.384775	
-0.5	1	0.2	
-0.5	1	0.3	
-0.37095	0.93253	0.240862	
-0.318838	1.02278	0.259668	
0.245477	0.808349	0	
0.296805	0.825729	0.165597	
0.232997	0.88938	0	
0.177224	0.838965	0.12521	
0.325159	1.05851	0.165819	
0.226544	0.947552	0.250202	
0.361351	0.935933	0.2197	
0.378383	1.07129	0.271427	
-0.18052	1.3078	0.334608	
-0.125823	1.17124	0.373805	
-0.134745	1.19543	0.248773	
-0.0850696	1.27829	0.394238	
-0.26105	1.2034	0	
-0.274228	1.15934	0.161857	
-0.18644	1.1823	0	
-0.277342	1.24516	0.0975038	
-0.134745	1.19543	0.248773	
-0.274228	1.15934	0.161857	
-0.136328	1.19004	0.119282	
-0.193842	1.09373	0.257323	
0.226544	0.947552	0.250202	
0.347602	0.985936	0.348343	
0.285177	0.816119	0.328962	
0.361351	0.935933	0.2197	
-0.136328	1.19004	0.119282	
-0.0543483	1.10288	0.107179	
-0.00674902	1.18961	0.168493	
-0.0611059	1.11559	0.264866	
0	1.25	0.5	
0.028723	1.17517	0.5	
-0.00173102	1.15684	0.347507	
0.0902907	1.23506	0.376077	
-0.156284	1.06551	0.149142	
-0.227254	0.962083	0.121579	
-0.23296	0.961598	0.249877	
-0.256772	1.06769	0.100506	
0	1.25	0.5	
-0.00167925	1.31098	0.319981	
0.0902907	1.23506	0.376077	
-0.0850696	1.27829	0.394238	
-0.00643767	0.847524	0.25115	
-0.00643767	0.847524	0.3797	
-0.144063	0.852748	0.341365	
-0.081357	0.751661	0.265055	
-0.0297704	0.68077	0.178611	
-0.136534	0.645188	0.231761	
-0.0977967	0.509657	0.258774	
0.0452903	0.623513	0.25784	
-0.274228	1.15934	0.161857	
-0.256772	1.06769	0.100506	
-0.193842	1.09373	0.257323	
-0.318838	1.02278	0.259668	
0.0712814	0.846848	0	
0.0541326	0.793785	0.132666	
0.0937412	0.930011	0.154317	
-0.00436862	0.872297	0.154061	
-0.0297704	0.68077	0.178611	
0.00505532	0.706778	0.339312	
-0.081357	0.751661	0.265055	
-0.136534	0.645188	0.231761	
0.0461078	0.941573	0	
0.0937412	0.930011	0.154317	
-0.0105385	0.962638	0.111113	
-0.00436862	0.872297	0.154061	
-0.274228	1.15934	0.161857	
-0.386792	1.31685	0.198616	
-0.279096	1.24359	0.272562	
-0.277342	1.24516	0.0975038	
0.285177	0.816119	0.328962	
0.347602	0.985936	0.348343	
0.226544	0.947552	0.250202	
0.211575	0.889225	0.384788	
0.109201	1.35772	0.375246	
0.0196341	1.38361	0.225797	
0.0854243	1.49265	0.251403	
0.105734	1.2948	0.276786	
0.285177	0.816119	0.328962	
0.361351	0.935933	0.2197	
0.347602	0.985936	0.348343	
0.358257	0.834187	0.252847	
-0.437078	1.24282	0.152991	
-0.274228	1.15934	0.161857	
-0.434698	1.24706	0.250499	
-0.364752	1.11394	0.23148	
0.0937412	0.930011	0.154317	
0.0541326	0.793785	0.132666	
0.0712814	0.846848	0	
0.177224	0.838965	0.12521	
-0.0977967	0.509657	0.258774	
-0.136534	0.645188	0.231761	
-0.0810399	0.506611	0.35285	
-0.039093	0.610067	0.388942	
-0.144063	0.852748	0.341365	
-0.23296	0.961598	0.249877	
-0.203766	0.963562	0.377533	
-0.140073	0.942584	0.309826	
0.164574	0.7464	0.211103	
0.278655	0.736565	0.241439	
0.215953	0.839226	0.238202	
0.260241	0.698507	0.343916	
0.226544	0.947552	0.250202	
0.208793	1.06331	0.266812	
0.347602	0.985936	0.348343	
0.378383	1.07129	0.271427	
-0.5	1	0.3	
-0.492649	1.08542	0.251403	
-0.382289	1.08918	0.382504	
-0.318838	1.02278	0.259668	
-0.144063	0.852748	0.341365	
-0.296327	0.833736	0.292179	
-0.189227	0.766031	0.208899	
-0.259603	0.71434	0.292274	
0.119419	1.18151	0.251425	
0.113965	1.18028	0.121768	
0.098462	1.32087	0.159093	
0.189162	1.24479	0.0938772	
-0.437078	1.24282	0.152991	
-0.386792	1.31685	0.198616	
-0.434698	1.24706	0.250499	
-0.279096	1.24359	0.272562	
-0.214341	1.27376	0	
-0.136328	1.19004	0.119282	
-0.119993	1.24669	0	
-0.153777	1.36779	0.103264	
-0.210789	1.29041	0.168489	
-0.136328	1.19004	0.119282	
-0.214341	1.27376	0	
-0.153777	1.36779	0.103264	
-0.115695	1.05029	0.334241	
-0.193842	1.09373	0.257323	
-0.203766	0.963562	0.377533	
-0.179827	1.088	0.408491	
-0.134745	1.19543	0.248773	
-0.00674902	1.18961	0.168493	
-0.0697093	1.32708	0.167311	
-0.0330822	1.21734	0.266884	
0.00505532	0.706778	0.339312	
-0.136534	0.645188	0.231761	
-0.0297704	0.68077	0.178611	
0.0452903	0.623513	0.25784	
-0.134745	1.19543	0.248773	
-0.0850696	1.27829	0.394238	
-0.125823	1.17124	0.373805	
-0.0330822	1.21734	0.266884	
0.119419	1.18151	0.251425	
0.22536	1.15058	0.40335	
0.125116	1.11613	0.369411	
0.219623	1.16199	0.240766	
-0.257956	1.11632	0	
-0.18644	1.1823	0	
-0.274228	1.15934	0.161857	
-0.256772	1.06769	0.100506	
-0.323938	0.619127	0.347739	
-0.317197	0.613495	0.431175	
-0.153774	0.693588	0.346551	
-0.289723	0.75771	0.393302	
-0.144063	0.852748	0.341365	
-0.296327	0.833736	0.292179	
-0.259603	0.71434	0.292274	
-0.289723	0.75771	0.393302	
0.109201	1.35772	0.375246	
0.212182	1.31459	0.219285	
0.209063	1.27717	0.342511	
0.105734	1.2948	0.276786	
-0.144063	0.852748	0.341365	
-0.239777	0.86007	0.398057	
-0.296327	0.833736	0.292179	
-0.289723	0.75771	0.393302	
0.164574	0.7464	0.211103	
0.215953	0.839226	0.238202	
0.206682	0.777113	0.400851	
0.260241	0.698507	0.343916	
0.245477	0.808349	0	
0.313791	0.845535	0	
0.232997	0.88938	0	
0.296805	0.825729	0.165597	
-0.0697093	1.32708	0.167311	
-0.134745	1.19543	0.248773	
-0.210789	1.29041	0.168489	
-0.136328	1.19004	0.119282	
0	1.25	0.5	
-0.00173102	1.15684	0.347507	
-0.0392044	1.16291	0.5	
-0.0850696	1.27829	0.394238	
-0.134745	1.19543	0.248773	
-0.193842	1.09373	0.257323	
-0.125823	1.17124	0.373805	
-0.234257	1.21312	0.375398	
-0.00425413	1.131	0	
0.0651412	1.2001	0	
[...]
CELL_DATA 4255
POINT_DATA 17020
SCALARS Pressure float 
LOOKUP_TABLE default
9.28663 9.28663 9.28663 9.28663 9.56342 9.56342 9.56342 9.56342 9.24925 9.24925 9.24925 9.24925 8.96581 8.96581 8.96581 8.96581 9.32891 9.32891 9.32891 9.32891 9.44655 9.44655 9.44655 9.44655 9.6281 9.6281 9.6281 9.6281 8.98807 8.98807 8.98807 8.98807 9.09714 9.09714 9.09714 9.09714 9.33731 9.33731 9.33731 9.33731 9.84492 9.84492 9.84492 9.84492 9.46638 9.46638 9.46638 9.46638 9.30677 9.30677 9.30677 9.30677 9.46278 9.46278 9.46278 9.46278 9.64845 9.64845 9.64845 9.64845 9.36392 9.36392 9.36392 9.36392 9.27066 9.27066 9.27066 9.27066 9.76546 9.76546 9.76546 9.76546 9.39934 9.39934 9.39934 9.39934 9.88858 9.88858 9.88858 9.88858 9.16923 9.16923 9.16923 9.16923 9.63179 9.63179 9.63179 9.63179 9.43974 9.43974 9.43974 9.43974 9.85778 9.85778 9.85778 9.85778 9.41532 9.41532 9.41532 9.41532 9.35377 9.35377 9.35377 9.35377 9.28799 9.28799 9.28799 9.28799 9.14533 9.14533 9.14533 9.14533 9.87557 9.87557 9.87557 9.87557 9.86108 9.86108 9.86108 9.86108 9.11002 9.11002 9.11002 9.11002 9.61584 9.61584 9.61584 9.61584 9.41534 9.41534 9.41534 9.41534 9.3057 9.3057 9.3057 9.3057 9.59546 9.59546 9.59546 9.59546 9.59595 9.59595 9.59595 9.59595 9.36714 9.36714 9.36714 9.36714 9.36794 9.36794 9.36794 9.36794 9.42061 9.42061 9.42061 9.42061 5.36213 5.36213 5.36213 5.36213 9.55644 9.55644 9.55644 9.55644 9.53939 9.53939 9.53939 9.53939 9.81755 9.81755 9.81755 9.81755 9.47573 9.47573 9.47573 9.47573 9.77947 9.77947 9.77947 9.77947 9.48754 9.48754 9.48754 9.48754 9.33474 9.33474 9.33474 9.33474 9.74331 9.74331 9.74331 9.74331 9.23013 9.23013 9.23013 9.23013 9.18211 9.18211 9.18211 9.18211 9.48449 9.48449 9.48449 9.48449 6.35291 6.35291 6.35291 6.35291 9.39698 9.39698 9.39698 9.39698 8.46774 8.46774 8.46774 8.46774 8.54218 8.54218 8.54218 8.54218 9.34855 9.34855 9.34855 9.34855 9.47845 9.47845 9.47845 9.47845 9.33788 9.33788 9.33788 9.33788 9.29268 9.29268 9.29268 9.29268 9.2382 9.2382 9.2382 9.2382 9.39467 9.39467 9.39467 9.39467 9.64446 9.64446 9.64446 9.64446 9.2857 9.2857 9.2857 9.2857 9.35645 9.35645 9.35645 9.35645 9.43084 9.43084 9.43084 9.43084 9.50135 9.50135 9.50135 9.50135 9.50036 9.50036 9.50036 9.50036 8.01331 8.01331 8.01331 8.01331 9.45939 9.45939 9.45939 9.45939 9.16041 9.16041 9.16041 9.16041 9.42682 9.42682 9.42682 9.42682 9.59315 9.59315 9.59315 9.59315 9.55812 9.55812 9.55812 9.55812 9.44779 9.44779 9.44779 9.44779 9.84955 9.84955 9.84955 9.84955 9.73046 9.73046 9.73046 9.73046 7.38025 7.38025 7.38025 7.38025 9.13649 9.13649 9.13649 9.13649 9.53091 9.53091 9.53091 9.53091 9.12965 9.12965 9.12965 9.12965 9.11591 9.11591 9.11591 9.11591 9.78885 9.78885 9.78885 9.78885 9.81754 9.81754 9.81754 9.81754 9.64717 9.64717 9.64717 9.64717 9.46183 9.46183 9.46183 9.46183 9.55243 9.55243 9.55243 9.55243 9.47369 9.47369 9.47369 9.47369 9.84233 9.84233 9.84233 9.84233 9.63749 9.63749 9.63749 9.63749 6.93827 6.93827 6.93827 6.93827 9.21443 9.21443 9.21443 9.21443 9.97428 9.97428 9.97428 9.97428 9.62343 9.62343 9.62343 9.62343 9.36593 9.36593 9.36593 9.36593 9.45956 9.45956 9.45956 9.45956 9.47096 9.47096 9.47096 9.47096 9.71663 9.71663 9.71663 9.71663 9.58713 9.58713 9.58713 9.58713 9.70628 9.70628 9.70628 9.70628 9.51192 9.51192 9.51192 9.51192 9.4132 9.4132 9.4132 9.4132 9.71765 9.71765 9.71765 9.71765 6.14835 6.14835 6.14835 6.14835 9.32421 9.32421 9.32421 9.32421 10.4767 10.4767 10.4767 10.4767 9.128 9.128 9.128 9.128 9.75954 9.75954 9.75954 9.75954 9.81157 9.81157 9.81157 9.81157 9.67539 9.67539 9.67539 9.67539 9.41878 9.41878 9.41878 9.41878 9.12282 9.12282 9.12282 9.12282 9.49568 9.49568 9.49568 9.49568 9.26987 9.26987 9.26987 9.26987 9.5099 9.5099 9.5099 9.5099 9.22399 9.22399 9.22399 9.22399 9.9251 9.9251 9.9251 9.9251 9.29854 9.29854 9.29854 9.29854 9.52559 9.52559 9.52559 9.52559 9.33191 9.33191 9.33191 9.33191 9.33284 9.33284 9.33284 9.33284 9.41981 9.41981 9.41981 9.41981 8.86714 8.86714 8.86714 8.86714 9.43407 9.43407 9.43407 9.43407 9.89717 9.89717 9.89717 9.89717 9.66632 9.66632 9.66632 9.66632 3.51891 3.51891 3.51891 3.51891 9.36516 9.36516 9.36516 9.36516 8.40891 8.40891 8.40891 8.40891 9.3165 9.3165 9.3165 9.3165 9.94797 9.94797 9.94797 9.94797 8.96283 8.96283 8.96283 8.96283 9.71481 9.71481 9.71481 9.71481 9.30142 9.30142 9.30142 9.30142 8.56798 8.56798 8.56798 8.56798 9.65573 9.65573 9.65573 9.65573 9.46093 9.46093 9.46093 9.46093 8.46941 8.46941 8.46941 8.46941 9.6173 9.6173 9.6173 9.6173 9.60081 9.60081 9.60081 9.60081 7.81113 7.81113 7.81113 7.81113 9.36314 9.36314 9.36314 9.36314 9.33002 9.33002 9.33002 9.33002 9.64905 9.64905 9.64905 9.64905 9.61579 9.61579 9.61579 9.61579 7.17489 7.17489 7.17489 7.17489 9.7342 9.7342 9.7342 9.7342 9.35446 9.35446 9.35446 9.35446 9.93402 9.93402 9.93402 9.93402 12.0372 12.0372 12.0372 12.0372 9.55668 9.55668 9.55668 9.55668 9.35465 9.35465 9.35465 9.35465 10.1044 10.1044 10.1044 10.1044 9.5459 9.5459 9.5459 9.5459 9.61769 9.61769 9.61769 9.61769 9.43986 9.43986 9.43986 9.43986 9.88936 9.88936 9.88936 9.88936 10.0181 10.0181 10.0181 10.0181 9.91766 9.91766 9.91766 9.91766 9.57615 9.57615 9.57615 9.57615 9.04616 9.04616 9.04616 9.04616 10.5819 10.5819 10.5819 10.5819 9.38038 9.38038 9.38038 9.38038 9.52203 9.52203 9.52203 9.52203 9.56983 9.56983 9.56983 9.56983 8.23642 8.23642 8.23642 8.23642 9.16057 9.16057 9.16057 9.16057 8.70429 8.70429 8.70429 8.70429 9.40057 9.40057 9.40057 9.40057 9.55504 9.55504 9.55504 9.55504 10.1933 10.1933 10.1933 10.1933 10.7552 10.7552 10.7552 10.7552 9.38995 9.38995 9.38995 9.38995 9.49817 9.49817 9.49817 9.49817 9.48224 9.48224 9.48224 9.48224 7.66335 7.66335 7.66335 7.66335 9.84664 9.84664 9.84664 9.84664 9.65932 9.65932 9.65932 9.65932 9.6557 9.6557 9.6557 9.6557 9.50939 9.50939 9.50939 9.50939 8.53346 8.53346 8.53346 8.53346 9.4136 9.4136 9.4136 9.4136 8.5886 8.5886 8.5886 8.5886 9.54368 9.54368 9.54368 9.54368 9.33941 9.33941 9.33941 9.33941 9.39227 9.39227 9.39227 9.39227 9.40511 9.40511 9.40511 9.40511 9.65061 9.65061 9.65061 9.65061 9.53861 9.53861 9.53861 9.53861 9.68333 9.68333 9.68333 9.68333 9.10461 9.10461 9.10461 9.10461 9.36624 9.36624 9.36624 9.36624 9.30269 9.30269 9.30269 9.30269 3.5569 3.5569 3.5569 3.5569 9.70387 9.70387 9.70387 9.70387 9.50945 9.50945 9.50945 9.50945 8.85196 8.85196 8.85196 8.85196 9.38648 9.38648 9.38648 9.38648 5.70182 5.70182 5.70182 5.70182 9.46739 9.46739 9.46739 9.46739 9.90292 9.90292 9.90292 9.90292 9.65127 9.65127 9.65127 9.65127 9.66036 9.66036 9.66036 9.66036 9.62841 9.62841 9.62841 9.62841 9.7686 9.7686 9.7686 9.7686 9.72023 9.72023 9.72023 9.72023 9.3434 9.3434 9.3434 9.3434 11.213 11.213 11.213 11.213 9.05658 9.05658 9.05658 9.05658 9.75832 9.75832 9.75832 9.75832 9.58351 9.58351 9.58351 9.58351 9.40797 9.40797 9.40797 9.40797 8.55667 8.55667 8.55667 8.55667 9.65544 9.65544 9.65544 9.65544 9.63173 9.63173 9.63173 9.63173 9.60445 9.60445 9.60445 9.60445 9.38987 9.38987 9.38987 9.38987 9.04672 9.04672 9.04672 9.04672 9.62584 9.62584 9.62584 9.62584 9.4488 9.4488 9.4488 9.4488 9.40301 9.40301 9.40301 9.40301 9.95884 9.95884 9.95884 9.95884 9.73644 9.73644 9.73644 9.73644 2.57275 2.57275 2.57275 2.57275 9.74797 9.74797 9.74797 9.74797 9.45563 9.45563 9.45563 9.45563 10.0887 10.0887 10.0887 10.0887 9.46336 9.46336 9.46336 9.46336 9.37558 9.37558 9.37558 9.37558 8.9503 8.9503 8.9503 8.9503 10.0647 10.0647 10.0647 10.0647 10.0011 10.0011 10.0011 10.0011 8.56175 8.56175 8.56175 8.56175 9.55036 9.55036 9.55036 9.55036 8.06289 8.06289 8.06289 8.06289 9.79948 9.79948 9.79948 9.79948 9.43423 9.43423 9.43423 9.43423 8.92779 8.92779 8.92779 8.92779 10.1093 10.1093 10.1093 10.1093 9.46415 9.46415 9.46415 9.46415 9.53566 9.53566 9.53566 9.53566 8.95093 8.95093 8.95093 8.95093 8.86288 8.86288 8.86288 8.86288 9.64107 9.64107 9.64107 9.64107 9.97173 9.97173 9.97173 9.97173 9.52414 9.52414 9.52414 9.52414 9.69344 9.69344 9.69344 9.69344 8.86942 8.86942 8.86942 8.86942 9.27489 9.27489 9.27489 9.27489 9.63277 9.63277 9.63277 9.63277 9.34128 9.34128 9.34128 9.34128 9.85962 9.85962 9.85962 9.85962 8.84444 8.84444 8.84444 8.84444 8.52793 8.52793 8.52793 8.52793 8.93455 8.93455 8.93455 8.93455 8.62924 8.62924 8.62924 8.62924 9.26724 9.26724 9.26724 9.26724 9.73753 9.73753 9.73753 9.73753 10.0551 10.0551 10.0551 10.0551 9.41338 9.41338 9.41338 9.41338 7.17901 7.17901 7.17901 7.17901 9.45365 9.45365 9.45365 9.45365 9.78107 9.78107 9.78107 9.78107 9.03266 9.03266 9.03266 9.03266 9.69729 9.69729 9.69729 9.69729 9.41652 9.41652 9.41652 9.41652 8.32005 8.32005 8.32005 8.32005 9.33345 9.33345 9.33345 9.33345 6.13238 6.13238 6.13238 6.13238 9.23208 9.23208 9.23208 9.23208 9.47697 9.47697 9.47697 9.47697 9.75846 9.75846 9.75846 9.75846 9.65404 9.65404 9.65404 9.65404 9.97429 9.97429 9.97429 9.97429 9.68945 9.68945 9.68945 9.68945 9.59656 9.59656 9.59656 9.59656 8.56002 8.56002 8.56002 8.56002 9.71531 9.71531 9.71531 9.71531 9.31518 9.31518 9.31518 9.31518 9.44782 9.44782 9.44782 9.44782 9.76121 9.76121 9.76121 9.76121 9.43897 9.43897 9.43897 9.43897 7.7329 7.7329 7.7329 7.7329 9.60615 9.60615 9.60615 9.60615 9.55981 9.55981 9.55981 9.55981 9.44416 9.44416 9.44416 9.44416 9.26461 9.26461 9.26461 9.26461 9.03025 9.03025 9.03025 9.03025 9.376 9.376 9.376 9.376 9.67193 9.67193 9.67193 9.67193 9.74772 9.74772 9.74772 9.74772 9.05057 9.05057 9.05057 9.05057 9.73574 9.73574 9.73574 9.73574 9.00044 9.00044 9.00044 9.00044 9.66678 9.66678 9.66678 9.66678 9.47981 9.47981 9.47981 9.47981 8.5977 8.5977 8.5977 8.5977 9.70607 9.70607 9.70607 9.70607 9.29902 9.29902 9.29902 9.29902 5.13355 5.13355 5.13355 5.13355 9.65091 9.65091 9.65091 9.65091 9.34242 9.34242 9.34242 9.34242 9.43808 9.43808 9.43808 9.43808 9.88992 9.88992 9.88992 9.88992 9.68952 9.68952 9.68952 9.68952 6.67116 6.67116 6.67116 6.67116 9.11061 9.11061 9.11061 9.11061 9.47936 9.47936 9.47936 9.47936 9.40662 9.40662 9.40662 9.40662 8.83654 8.83654 8.83654 8.83654 9.94504 9.94504 9.94504 9.94504 9.8395 9.8395 9.8395 9.8395 10.0407 10.0407 10.0407 10.0407 4.27066 4.27066 4.27066 4.27066 10.1867 10.1867 10.1867 10.1867 9.65134 9.65134 9.65134 9.65134 9.58377 9.58377 9.58377 9.58377 9.89908 9.89908 9.89908 9.89908 9.36693 9.36693 9.36693 9.36693 9.43209 9.43209 9.43209 9.43209 9.54505 9.54505 9.54505 9.54505 9.46161 9.46161 9.46161 9.46161 9.3214 9.3214 9.3214 9.3214 9.63018 9.63018 9.63018 9.63018 9.83114 9.83114 9.83114 9.83114 8.63141 8.63141 8.63141 8.63141 9.81555 9.81555 9.81555 9.81555 9.50797 9.50797 9.50797 9.50797 9.58236 9.58236 9.58236 9.58236 9.85043 9.85043 9.85043 9.85043 9.61182 9.61182 9.61182 9.61182 9.7556 9.7556 9.7556 9.7556 9.45413 9.45413 9.45413 9.45413 9.32393 9.32393 9.32393 9.32393 9.17623 9.17623 9.17623 9.17623 9.70252 9.70252 9.70252 9.70252 8.1751 8.1751 8.1751 8.1751 9.66928 9.66928 9.66928 9.66928 9.45675 9.45675 9.45675 9.45675 10.0397 10.0397 10.0397 10.0397 7.85675 7.85675 7.85675 7.85675 9.5946 9.5946 9.5946 9.5946 7.80066 7.80066 7.80066 7.80066 5.56439 5.56439 5.56439 5.56439 7.1915 7.1915 7.1915 7.1915 8.71102 8.71102 8.71102 8.71102 9.04882 9.04882 9.04882 9.04882 6.44915 6.44915 6.44915 6.44915 9.74866 9.74866 9.74866 9.74866 9.76833 9.76833 9.76833 9.76833 9.4954 9.4954 9.4954 9.4954 8.93255 8.93255 8.93255 8.93255 9.37974 9.37974 9.37974 9.37974 9.7162 9.7162 9.7162 9.7162 3.4391 3.4391 3.4391 3.4391 9.70016 9.70016 9.70016 9.70016 9.05353 9.05353 9.05353 9.05353 9.86604 9.86604 9.86604 9.86604 9.45669 9.45669 9.45669 9.45669 9.46947 9.46947 9.46947 9.46947 9.54979 9.54979 9.54979 9.54979 6.60582 6.60582 6.60582 6.60582 9.86947 9.86947 9.86947 9.86947 9.39464 9.39464 9.39464 9.39464 9.5602 9.5602 9.5602 9.5602 9.63558 9.63558 9.63558 9.63558 9.95794 9.95794 9.95794 9.95794 9.70052 9.70052 9.70052 9.70052 9.56053 9.56053 9.56053 9.56053 9.70236 9.70236 9.70236 9.70236 10.4864 10.4864 10.4864 10.4864 9.46838 9.46838 9.46838 9.46838 9.8528 9.8528 9.8528 9.8528 9.13854 9.13854 9.13854 9.13854 9.5814 9.5814 9.5814 9.5814 8.59084 8.59084 8.59084 8.59084 8.75412 8.75412 8.75412 8.75412 10.0396 10.0396 10.0396 10.0396 9.43984 9.43984 9.43984 9.43984 9.39433 9.39433 9.39433 9.39433 9.82516 9.82516 9.82516 9.82516 9.5841 9.5841 9.5841 9.5841 9.82902 9.82902 9.82902 9.82902 9.6492 9.6492 9.6492 9.6492 9.46035 9.46035 9.46035 9.46035 8.39882 8.39882 8.39882 8.39882 9.86291 9.86291 9.86291 9.86291 9.67695 9.67695 9.67695 9.67695 9.42529 9.42529 9.42529 9.42529 9.68091 9.68091 9.68091 9.68091 9.84041 9.84041 9.84041 9.84041 9.66999 9.66999 9.66999 9.66999 6.44154 6.44154 6.44154 6.44154 9.3412 9.3412 9.3412 9.3412 9.37993 9.37993 9.37993 9.37993 9.81651 9.81651 9.81651 9.81651 9.5564 9.5564 9.5564 9.5564 9.32822 9.32822 9.32822 9.32822 9.89654 9.89654 9.89654 9.89654 7.47509 7.47509 7.47509 7.47509 9.50033 9.50033 9.50033 9.50033 9.82233 9.82233 9.82233 9.82233 8.62074 8.62074 8.62074 8.62074 9.83503 9.83503 9.83503 9.83503 7.01062 7.01062 7.01062 7.01062 5.81078 5.81078 5.81078 5.81078 3.8387 3.8387 3.8387 3.8387 9.95534 9.95534 9.95534 9.95534 9.48368 9.48368 9.48368 9.48368 9.6229 9.6229 9.6229 9.6229 9.88152 9.88152 9.88152 9.88152 9.2845 9.2845 9.2845 9.2845 9.90812 9.90812 9.90812 9.90812 9.67809 9.67809 9.67809 9.67809 8.30546 8.30546 8.30546 8.30546 9.77097 9.77097 9.77097 9.77097 9.45547 9.45547 9.45547 9.45547 7.5107 7.5107 7.5107 7.5107 9.36084 9.36084 9.36084 9.36084 8.28005 8.28005 8.28005 8.28005 9.45164 9.45164 9.45164 9.45164 9.07881 9.07881 9.07881 9.07881 9.97833 9.97833 9.97833 9.97833 9.65493 9.65493 9.65493 9.65493 9.7558 9.7558 9.7558 9.7558 3.18728 3.18728 3.18728 3.18728 9.21707 9.21707 9.21707 9.21707 9.28185 9.28185 9.28185 9.28185 9.17387 9.17387 9.17387 9.17387 9.76997 9.76997 9.76997 9.76997 7.4078 7.4078 7.4078 7.4078 8.54693 8.54693 8.54693 8.54693 9.93109 9.93109 9.93109 9.93109 9.60825 9.60825 9.60825 9.60825 9.41183 9.41183 9.41183 9.41183 10.0521 10.0521 10.0521 10.0521 9.74615 9.74615 9.74615 9.74615 4.35058 4.35058 4.35058 4.35058 9.6977 9.6977 9.6977 9.6977 9.57949 9.57949 9.57949 9.57949 9.31963 9.31963 9.31963 9.31963 10.3636 10.3636 10.3636 10.3636 9.68644 9.68644 9.68644 9.68644 9.38858 9.38858 9.38858 9.38858 9.57969 9.57969 9.57969 9.57969 9.40154 9.40154 9.40154 9.40154 9.49138 9.49138 9.49138 9.49138 9.44774 9.44774 9.44774 9.44774 9.46673 9.46673 9.46673 9.46673 9.5532 9.5532 9.5532 9.5532 9.39922 9.39922 9.39922 9.39922 9.43823 9.43823 9.43823 9.43823 9.94306 9.94306 9.94306 9.94306 9.84716 9.84716 9.84716 9.84716 11.8919 11.8919 11.8919 11.8919 9.64694 9.64694 9.64694 9.64694 9.6045 9.6045 9.6045 9.6045 9.61115 9.61115 9.61115 9.61115 9.91281 9.91281 9.91281 9.91281 9.31562 9.31562 9.31562 9.31562 9.42731 9.42731 9.42731 9.42731 9.75618 9.75618 9.75618 9.75618 9.80589 9.80589 9.80589 9.80589 9.56437 9.56437 9.56437 9.56437 9.68625 9.68625 9.68625 9.68625 8.52326 8.52326 8.52326 8.52326 9.66413 9.66413 9.66413 9.66413 9.02305 9.02305 9.02305 9.02305 9.71873 9.71873 9.71873 9.71873 9.58224 9.58224 9.58224 9.58224 9.72537 9.72537 9.72537 9.72537 9.59291 9.59291 9.59291 9.59291 9.60757 9.60757 9.60757 9.60757 9.5442 9.5442 9.5442 9.5442 9.41216 9.41216 9.41216 9.41216 9.94102 9.94102 9.94102 9.94102 9.7181 9.7181 9.7181 9.7181 9.39111 9.39111 9.39111 9.39111 5.82183 5.82183 5.82183 5.82183 9.56878 9.56878 9.56878 9.56878 9.84528 9.84528 9.84528 9.84528 9.46107 9.46107 9.46107 9.46107 9.39479 9.39479 9.39479 9.39479 7.86254 7.86254 7.86254 7.86254 9.38113 9.38113 9.38113 9.38113 9.36888 9.36888 9.36888 9.36888 9.67929 9.67929 9.67929 9.67929 9.68725 9.68725 9.68725 9.68725 9.7063 9.7063 9.7063 9.7063 9.73419 9.73419 9.73419 9.73419 9.58535 9.58535 9.58535 9.58535 9.72927 9.72927 9.72927 9.72927 9.7759 9.7759 9.7759 9.7759 9.81878 9.81878 9.81878 9.81878 9.76946 9.76946 9.76946 9.76946 8.86513 8.86513 8.86513 8.86513 8.95607 8.95607 8.95607 8.95607 9.46822 9.46822 9.46822 9.46822 9.59165 9.59165 9.59165 9.59165 9.58057 9.58057 9.58057 9.58057 8.42163 8.42163 8.42163 8.42163 10.7732 10.7732 10.7732 10.7732 8.85014 8.85014 8.85014 8.85014 9.17395 9.17395 9.17395 9.17395 10.2087 10.2087 10.2087 10.2087 9.31676 9.31676 9.31676 9.31676 9.29169 9.29169 9.29169 9.29169 9.68628 9.68628 9.68628 9.68628 9.42538 9.42538 9.42538 9.42538 8.90794 8.90794 8.90794 8.90794 9.3104 9.3104 9.3104 9.3104 8.96597 8.96597 8.96597 8.96597 10.0561 10.0561 10.0561 10.0561 9.60351 9.60351 9.60351 9.60351 10.0087 10.0087 10.0087 10.0087 9.83124 9.83124 9.83124 9.83124 9.68953 9.68953 9.68953 9.68953 9.95487 9.95487 9.95487 9.95487 9.51175 9.51175 9.51175 9.51175 9.5135 9.5135 9.5135 9.5135 10.3653 10.3653 10.3653 10.3653 9.48828 9.48828 9.48828 9.48828 9.53611 9.53611 9.53611 9.53611 9.51762 9.51762 9.51762 9.51762 10.1158 10.1158 10.1158 10.1158 5.34554 5.34554 5.34554 5.34554 7.46837 7.46837 7.46837 7.46837 9.66216 9.66216 9.66216 9.66216 9.41051 9.41051 9.41051 9.41051 9.76117 9.76117 9.76117 9.76117 9.43396 9.43396 9.43396 9.43396 9.69352 9.69352 9.69352 9.69352 6.98897 6.98897 6.98897 6.98897 9.33632 9.33632 9.33632 9.33632 5.25229 5.25229 5.25229 5.25229 9.77178 9.77178 9.77178 9.77178 10.5425 10.5425 10.5425 10.5425 9.45343 9.45343 9.45343 9.45343 9.73866 9.73866 9.73866 9.73866 9.49069 9.49069 9.49069 9.49069 9.40986 9.40986 9.40986 9.40986 9.21208 9.21208 9.21208 9.21208 14.4568 14.4568 14.4568 14.4568 10.6139 10.6139 10.6139 10.6139 10.4086 10.4086 10.4086 10.4086 9.77321 9.77321 9.77321 9.77321 9.74274 9.74274 9.74274 9.74274 9.62976 9.62976 9.62976 9.62976 9.53353 9.53353 9.53353 9.53353 6.86156 6.86156 6.86156 6.86156 9.83353 9.83353 9.83353 9.83353 2.55955 2.55955 2.55955 2.55955 11.2098 11.2098 11.2098 11.2098 12.9389 12.9389 12.9389 12.9389 9.98896 9.98896 9.98896 9.98896 9.68724 9.68724 9.68724 9.68724 10.0092 10.0092 10.0092 10.0092 9.62512 9.62512 9.62512 9.62512 3.5495 3.5495 3.5495 3.5495 9.71178 9.71178 9.71178 9.71178 9.67318 9.67318 9.67318 9.67318 7.29193 7.29193 7.29193 7.29193 10.3684 10.3684 10.3684 10.3684 9.75555 9.75555 9.75555 9.75555 9.52477 9.52477 9.52477 9.52477 9.88821 9.88821 9.88821 9.88821 9.75966 9.75966 9.75966 9.75966 2.18156 2.18156 2.18156 2.18156 9.37842 9.37842 9.37842 9.37842 9.59275 9.59275 9.59275 9.59275 9.44237 9.44237 9.44237 9.44237 10.6273 10.6273 10.6273 10.6273 9.71411 9.71411 9.71411 9.71411 5.93643 5.93643 5.93643 5.93643 9.64883 9.64883 9.64883 9.64883 9.8897 9.8897 9.8897 9.8897 9.87328 9.87328 9.87328 9.87328 9.49802 9.49802 9.49802 9.49802 9.40143 9.40143 9.40143 9.40143 9.85122 9.85122 9.85122 9.85122 8.90522 8.90522 8.90522 8.90522 9.47947 9.47947 9.47947 9.47947 9.64796 9.64796 9.64796 9.64796 9.66807 9.66807 9.66807 9.66807 9.41354 9.41354 9.41354 9.41354 9.82125 9.82125 9.82125 9.82125 9.48349 9.48349 9.48349 9.48349 8.88426 8.88426 8.88426 8.88426 9.3524 9.3524 9.3524 9.3524 9.62474 9.62474 9.62474 9.62474 9.87751 9.87751 9.87751 9.87751 9.87507 9.87507 9.87507 9.87507 9.81294 9.81294 9.81294 9.81294 9.21297 9.21297 9.21297 9.21297 9.73692 9.73692 9.73692 9.73692 9.14785 9.14785 9.14785 9.14785 9.63319 9.63319 9.63319 9.63319 9.4749 9.4749 9.4749 9.4749 9.38024 9.38024 9.38024 9.38024 8.46642 8.46642 8.46642 8.46642 9.55214 9.55214 9.55214 9.55214 9.77724 9.77724 9.77724 9.77724 9.68056 9.68056 9.68056 9.68056 9.19287 9.19287 9.19287 9.19287 9.46174 9.46174 9.46174 9.46174 9.93582 9.93582 9.93582 9.93582 9.36295 9.36295 9.36295 9.36295 9.75165 9.75165 9.75165 9.75165 9.45989 9.45989 9.45989 9.45989 9.46858 9.46858 9.46858 9.46858 8.81921 8.81921 8.81921 8.81921 9.41638 9.41638 9.41638 9.41638 9.78781 9.78781 9.78781 9.78781 9.42803 9.42803 9.42803 9.42803 11.2226 11.2226 11.2226 11.2226 8.38531 8.38531 8.38531 8.38531 9.3422 9.3422 9.3422 9.3422 2.18175 2.18175 2.18175 2.18175 10.2075 10.2075 10.2075 10.2075 9.44703 9.44703 9.44703 9.44703 9.92058 9.92058 9.92058 9.92058 9.62507 9.62507 9.62507 9.62507 9.48094 9.48094 9.48094 9.48094 9.44845 9.44845 9.44845 9.44845 9.53421 9.53421 9.53421 9.53421 10.0897 10.0897 10.0897 10.0897 9.53909 9.53909 9.53909 9.53909 9.88121 9.88121 9.88121 9.88121 9.49454 9.49454 9.49454 9.49454 9.35996 9.35996 9.35996 9.35996 9.8107 9.8107 9.8107 9.8107 9.05372 9.05372