# vtk DataFile Version 3.0
vtk output
ASCII
DATASET UNSTRUCTURED_GRID
POINTS 17020 float
-0.18052	1.3078	0.334608	
-0.134745	1.19543	0.248773	
-0.0964049	1.37384	0.276475	
-0.0330822	1.21734	0.266884	
-0.00167925	1.31098	0.319981	
0.109201	1.35772	0.375246	
0.0814864	1.49332	0.347681	
-0.0552231	1.38907	0.38538	
0.164574	0.7464	0.211103	
0.121965	0.82524	0.342904	
0.206682	0.777113	0.400851	
0.215953	0.839226	0.238202	
-0.134745	1.19543	0.248773	
-0.156284	1.06551	0.149142	
-0.136328	1.19004	0.119282	
-0.0611059	1.11559	0.264866	
-0.0977967	0.509657	0.258774	
0.0452903	0.623513	0.25784	
-0.136534	0.645188	0.231761	
-0.039093	0.610067	0.388942	
0.0814864	1.49332	0.347681	
0.109201	1.35772	0.375246	
-0.00167925	1.31098	0.319981	
0.0196341	1.38361	0.225797	
-0.119993	1.24669	0	
-0.136328	1.19004	0.119282	
-0.0697093	1.32708	0.167311	
-0.153777	1.36779	0.103264	
-0.23296	0.961598	0.249877	
-0.193842	1.09373	0.257323	
-0.156284	1.06551	0.149142	
-0.256772	1.06769	0.100506	
0	1.25	0.5	
0.0902907	1.23506	0.376077	
-0.00173102	1.15684	0.347507	
-0.0850696	1.27829	0.394238	
-0.274228	1.15934	0.161857	
-0.279096	1.24359	0.272562	
-0.434698	1.24706	0.250499	
-0.364752	1.11394	0.23148	
-0.136534	0.645188	0.231761	
0.0452903	0.623513	0.25784	
0.00505532	0.706778	0.339312	
-0.039093	0.610067	0.388942	
-0.134745	1.19543	0.248773	
-0.0964049	1.37384	0.276475	
-0.0697093	1.32708	0.167311	
-0.193559	1.35773	0.245031	
-0.18052	1.3078	0.334608	
-0.0850696	1.27829	0.394238	
-0.134745	1.19543	0.248773	
-0.0330822	1.21734	0.266884	
0.209063	1.27717	0.342511	
0.109201	1.35772	0.375246	
0.25658	1.42915	0.33124	
0.212182	1.31459	0.219285	
-0.0697093	1.32708	0.167311	
-0.136328	1.19004	0.119282	
-0.119993	1.24669	0	
0.00439522	1.27731	0.103072	
-0.437078	1.24282	0.152991	
-0.434698	1.24706	0.250499	
-0.274228	1.15934	0.161857	
-0.279096	1.24359	0.272562	
-0.0697093	1.32708	0.167311	
-0.0964049	1.37384	0.276475	
-0.134745	1.19543	0.248773	
-0.0330822	1.21734	0.266884	
-0.138674	1.3238	0	
-0.119993	1.24669	0	
-0.0697093	1.32708	0.167311	
-0.153777	1.36779	0.103264	
0.164574	0.7464	0.211103	
0.121965	0.82524	0.342904	
0.151014	0.679593	0.343049	
0.206682	0.777113	0.400851	
0.388274	1.31503	0.420807	
0.281092	1.28109	0.5	
0.209063	1.27717	0.342511	
0.347642	1.19453	0.384775	
-0.23296	0.961598	0.249877	
-0.193842	1.09373	0.257323	
-0.256772	1.06769	0.100506	
-0.318838	1.02278	0.259668	
-0.18644	1.1823	0	
-0.136328	1.19004	0.119282	
-0.274228	1.15934	0.161857	
-0.256772	1.06769	0.100506	
-0.156284	1.06551	0.149142	
-0.0543483	1.10288	0.107179	
-0.136328	1.19004	0.119282	
-0.0611059	1.11559	0.264866	
-0.0555676	1.32557	0	
-0.138674	1.3238	0	
-0.119993	1.24669	0	
-0.0697093	1.32708	0.167311	
-0.00425413	1.131	0	
0.113965	1.18028	0.121768	
-0.00674902	1.18961	0.168493	
0.0593465	1.06716	0.10856	
-0.0697093	1.32708	0.167311	
-0.00674902	1.18961	0.168493	
-0.134745	1.19543	0.248773	
-0.136328	1.19004	0.119282	
0.226544	0.947552	0.250202	
0.325159	1.05851	0.165819	
0.208793	1.06331	0.266812	
0.378383	1.07129	0.271427	
-0.18052	1.3078	0.334608	
-0.0964049	1.37384	0.276475	
-0.0850696	1.27829	0.394238	
-0.0330822	1.21734	0.266884	
-0.26105	1.2034	0	
-0.257956	1.11632	0	
-0.18644	1.1823	0	
-0.274228	1.15934	0.161857	
-0.138674	1.3238	0	
-0.0697093	1.32708	0.167311	
-0.0555676	1.32557	0	
-0.153777	1.36779	0.103264	
-0.134745	1.19543	0.248773	
-0.136328	1.19004	0.119282	
-0.00674902	1.18961	0.168493	
-0.0611059	1.11559	0.264866	
-0.134745	1.19543	0.248773	
-0.0697093	1.32708	0.167311	
-0.210789	1.29041	0.168489	
-0.193559	1.35773	0.245031	
-0.5	1	0.3	
-0.382289	1.08918	0.382504	
-0.363598	0.972427	0.365583	
-0.318838	1.02278	0.259668	
-0.134745	1.19543	0.248773	
-0.18052	1.3078	0.334608	
-0.0964049	1.37384	0.276475	
-0.193559	1.35773	0.245031	
-0.00425413	1.131	0	
0.0651412	1.2001	0	
-0.00674902	1.18961	0.168493	
0.113965	1.18028	0.121768	
0.0461078	0.941573	0	
0.0712814	0.846848	0	
0.0937412	0.930011	0.154317	
-0.00436862	0.872297	0.154061	
-0.437078	1.24282	0.152991	
-0.274228	1.15934	0.161857	
-0.386792	1.31685	0.198616	
-0.279096	1.24359	0.272562	
-0.00425413	1.131	0	
0.0593465	1.06716	0.10856	
-0.00674902	1.18961	0.168493	
-0.0543483	1.10288	0.107179	
-0.0977967	0.509657	0.258774	
-0.136534	0.645188	0.231761	
-0.0297704	0.68077	0.178611	
-0.0982069	0.610875	0.136018	
-0.00173102	1.15684	0.347507	
0.125116	1.11613	0.369411	
0.0868435	1.13736	0.5	
-0.00748686	1.04315	0.386084	
-0.171353	0.530279	0.338334	
-0.0810399	0.506611	0.35285	
-0.136534	0.645188	0.231761	
-0.039093	0.610067	0.388942	
0.174678	1.4685	0.317109	
0.25658	1.42915	0.33124	
0.109201	1.35772	0.375246	
0.212182	1.31459	0.219285	
0.374193	1.33163	0.334643	
0.388274	1.31503	0.420807	
0.209063	1.27717	0.342511	
0.347642	1.19453	0.384775	
-0.5	1	0.2	
-0.5	1	0.3	
-0.37095	0.93253	0.240862	
-0.318838	1.02278	0.259668	
0.245477	0.808349	0	
0.296805	0.825729	0.165597	
0.232997	0.88938	0	
0.177224	0.838965	0.12521	
0.325159	1.05851	0.165819	
0.226544	0.947552	0.250202	
0.361351	0.935933	0.2197	
0.378383	1.07129	0.271427	
-0.18052	1.3078	0.334608	
-0.125823	1.17124	0.373805	
-0.134745	1.19543	0.248773	
-0.0850696	1.27829	0.394238	
-0.26105	1.2034	0	
-0.274228	1.15934	0.161857	
-0.18644	1.1823	0	
-0.277342	1.24516	0.0975038	
-0.134745	1.19543	0.248773	
-0.274228	1.15934	0.161857	
-0.136328	1.19004	0.119282	
-0.193842	1.09373	0.257323	
0.226544	0.947552	0.250202	
0.347602	0.985936	0.348343	
0.285177	0.816119	0.328962	
0.361351	0.935933	0.2197	
-0.136328	1.19004	0.119282	
-0.0543483	1.10288	0.107179	
-0.00674902	1.18961	0.168493	
-0.0611059	1.11559	0.264866	
0	1.25	0.5	
0.028723	1.17517	0.5	
-0.00173102	1.15684	0.347507	
0.0902907	1.23506	0.376077	
-0.156284	1.06551	0.149142	
-0.227254	0.962083	0.121579	
-0.23296	0.961598	0.249877	
-0.256772	1.06769	0.100506	
0	1.25	0.5	
-0.00167925	1.31098	0.319981	
0.0902907	1.23506	0.376077	
-0.0850696	1.27829	0.394238	
-0.00643767	0.847524	0.25115	
-0.00643767	0.847524	0.3797	
-0.144063	0.852748	0.341365	
-0.081357	0.751661	0.265055	
-0.0297704	0.68077	0.178611	
-0.136534	0.645188	0.231761	
-0.0977967	0.509657	0.258774	
0.0452903	0.623513	0.25784	
-0.274228	1.15934	0.161857	
-0.256772	1.06769	0.100506	
-0.193842	1.09373	0.257323	
-0.318838	1.02278	0.259668	
0.0712814	0.846848	0	
0.0541326	0.793785	0.132666	
0.0937412	0.930011	0.154317	
-0.00436862	0.872297	0.154061	
-0.0297704	0.68077	0.178611	
0.00505532	0.706778	0.339312	
-0.081357	0.751661	0.265055	
-0.136534	0.645188	0.231761	
0.0461078	0.941573	0	
0.0937412	0.930011	0.154317	
-0.0105385	0.962638	0.111113	
-0.00436862	0.872297	0.154061	
-0.274228	1.15934	0.161857	
-0.386792	1.31685	0.198616	
-0.279096	1.24359	0.272562	
-0.277342	1.24516	0.0975038	
0.285177	0.816119	0.328962	
0.347602	0.985936	0.348343	
0.226544	0.947552	0.250202	
0.211575	0.889225	0.384788	
0.109201	1.35772	0.375246	
0.0196341	1.38361	0.225797	
0.0854243	1.49265	0.251403	
0.105734	1.2948	0.276786	
0.285177	0.816119	0.328962	
0.361351	0.935933	0.2197	
0.347602	0.985936	0.348343	
0.358257	0.834187	0.252847	
-0.437078	1.24282	0.152991	
-0.274228	1.15934	0.161857	
-0.434698	1.24706	0.250499	
-0.364752	1.11394	0.23148	
0.0937412	0.930011	0.154317	
0.0541326	0.793785	0.132666	
0.0712814	0.846848	0	
0.177224	0.838965	0.12521	
-0.0977967	0.509657	0.258774	
-0.136534	0.645188	0.231761	
-0.0810399	0.506611	0.35285	
-0.039093	0.610067	0.388942	
-0.144063	0.852748	0.341365	
-0.23296	0.961598	0.249877	
-0.203766	0.963562	0.377533	
-0.140073	0.942584	0.309826	
0.164574	0.7464	0.211103	
0.278655	0.736565	0.241439	
0.215953	0.839226	0.238202	
0.260241	0.698507	0.343916	
0.226544	0.947552	0.250202	
0.208793	1.06331	0.266812	
0.347602	0.985936	0.348343	
0.378383	1.07129	0.271427	
-0.5	1	0.3	
-0.492649	1.08542	0.251403	
-0.382289	1.08918	0.382504	
-0.318838	1.02278	0.259668	
-0.144063	0.852748	0.341365	
-0.296327	0.833736	0.292179	
-0.189227	0.766031	0.208899	
-0.259603	0.71434	0.292274	
0.119419	1.18151	0.251425	
0.113965	1.18028	0.121768	
0.098462	1.32087	0.159093	
0.189162	1.24479	0.0938772	
-0.437078	1.24282	0.152991	
-0.386792	1.31685	0.198616	
-0.434698	1.24706	0.250499	
-0.279096	1.24359	0.272562	
-0.214341	1.27376	0	
-0.136328	1.19004	0.119282	
-0.119993	1.24669	0	
-0.153777	1.36779	0.103264	
-0.210789	1.29041	0.168489	
-0.136328	1.19004	0.119282	
-0.214341	1.27376	0	
-0.153777	1.36779	0.103264	
-0.115695	1.05029	0.334241	
-0.193842	1.09373	0.257323	
-0.203766	0.963562	0.377533	
-0.179827	1.088	0.408491	
-0.134745	1.19543	0.248773	
-0.00674902	1.18961	0.168493	
-0.0697093	1.32708	0.167311	
-0.0330822	1.21734	0.266884	
0.00505532	0.706778	0.339312	
-0.136534	0.645188	0.231761	
-0.0297704	0.68077	0.178611	
0.0452903	0.623513	0.25784	
-0.134745	1.19543	0.248773	
-0.0850696	1.27829	0.394238	
-0.125823	1.17124	0.373805	
-0.0330822	1.21734	0.266884	
0.119419	1.18151	0.251425	
0.22536	1.15058	0.40335	
0.125116	1.11613	0.369411	
0.219623	1.16199	0.240766	
-0.257956	1.11632	0	
-0.18644	1.1823	0	
-0.274228	1.15934	0.161857	
-0.256772	1.06769	0.100506	
-0.323938	0.619127	0.347739	
-0.317197	0.613495	0.431175	
-0.153774	0.693588	0.346551	
-0.289723	0.75771	0.393302	
-0.144063	0.852748	0.341365	
-0.296327	0.833736	0.292179	
-0.259603	0.71434	0.292274	
-0.289723	0.75771	0.393302	
0.109201	1.35772	0.375246	
0.212182	1.31459	0.219285	
0.209063	1.27717	0.342511	
0.105734	1.2948	0.276786	
-0.144063	0.852748	0.341365	
-0.239777	0.86007	0.398057	
-0.296327	0.833736	0.292179	
-0.289723	0.75771	0.393302	
0.164574	0.7464	0.211103	
0.215953	0.839226	0.238202	
0.206682	0.777113	0.400851	
0.260241	0.698507	0.343916	
0.245477	0.808349	0	
0.313791	0.845535	0	
0.232997	0.88938	0	
0.296805	0.825729	0.165597	
-0.0697093	1.32708	0.167311	
-0.134745	1.19543	0.248773	
-0.210789	1.29041	0.168489	
-0.136328	1.19004	0.119282	
0	1.25	0.5	
-0.00173102	1.15684	0.347507	
-0.0392044	1.16291	0.5	
-0.0850696	1.27829	0.394238	
-0.134745	1.19543	0.248773	
-0.193842	1.09373	0.257323	
-0.125823	1.17124	0.373805	
-0.234257	1.21312	0.375398	
-0.00425413	1.131	0	
0.0651412	1.2001	0	
[...]
CELL_DATA 4255
POINT_DATA 17020
SCALARS Pressure float 
LOOKUP_TABLE default
4.41383 4.41383 4.41383 4.41383 2.84375 2.84375 2.84375 2.84375 4.07793 4.07793 4.07793 4.07793 6.01556 6.01556 6.01556 6.01556 4.56699 4.56699 4.56699 4.56699 3.42951 3.42951 3.42951 3.42951 7.90226 7.90226 7.90226 7.90226 6.18509 6.18509 6.18509 6.18509 2.141 2.141 2.141 2.141 5.24649 5.24649 5.24649 5.24649 3.98783 3.98783 3.98783 3.98783 5.21864 5.21864 5.21864 5.21864 4.02521 4.02521 4.02521 4.02521 3.48327 3.48327 3.48327 3.48327 7.93092 7.93092 7.93092 7.93092 5.85952 5.85952 5.85952 5.85952 5.04503 5.04503 5.04503 5.04503 8.63492 8.63492 8.63492 8.63492 3.3868 3.3868 3.3868 3.3868 1.84815 1.84815 1.84815 1.84815 5.49531 5.49531 5.49531 5.49531 7.95238 7.95238 7.95238 7.95238 6.89529 6.89529 6.89529 6.89529 9.39735 9.39735 9.39735 9.39735 7.89919 7.89919 7.89919 7.89919 6.50163 6.50163 6.50163 6.50163 5.06785 5.06785 5.06785 5.06785 3.82703 3.82703 3.82703 3.82703 9.43643 9.43643 9.43643 9.43643 8.71553 8.71553 8.71553 8.71553 5.94277 5.94277 5.94277 5.94277 5.84864 5.84864 5.84864 5.84864 3.42076 3.42076 3.42076 3.42076 4.62045 4.62045 4.62045 4.62045 8.54772 8.54772 8.54772 8.54772 8.47506 8.47506 8.47506 8.47506 6.32833 6.32833 6.32833 6.32833 7.95827 7.95827 7.95827 7.95827 5.78929 5.78929 5.78929 5.78929 2.08725 2.08725 2.08725 2.08725 3.31163 3.31163 3.31163 3.31163 3.676 3.676 3.676 3.676 2.61307 2.61307 2.61307 2.61307 4.96588 4.96588 4.96588 4.96588 8.5687 8.5687 8.5687 8.5687 5.39229 5.39229 5.39229 5.39229 3.05005 3.05005 3.05005 3.05005 8.73394 8.73394 8.73394 8.73394 6.00253 6.00253 6.00253 6.00253 4.22214 4.22214 4.22214 4.22214 6.79516 6.79516 6.79516 6.79516 1.37364 1.37364 1.37364 1.37364 6.96514 6.96514 6.96514 6.96514 2.27462 2.27462 2.27462 2.27462 3.87309 3.87309 3.87309 3.87309 5.16675 5.16675 5.16675 5.16675 5.96959 5.96959 5.96959 5.96959 7.64615 7.64615 7.64615 7.64615 4.867 4.867 4.867 4.867 7.76291 7.76291 7.76291 7.76291 6.40088 6.40088 6.40088 6.40088 3.43059 3.43059 3.43059 3.43059 4.55148 4.55148 4.55148 4.55148 4.23233 4.23233 4.23233 4.23233 5.96165 5.96165 5.96165 5.96165 7.79689 7.79689 7.79689 7.79689 3.80921 3.80921 3.80921 3.80921 3.6509 3.6509 3.6509 3.6509 4.82932 4.82932 4.82932 4.82932 4.41397 4.41397 4.41397 4.41397 4.06458 4.06458 4.06458 4.06458 4.1793 4.1793 4.1793 4.1793 7.0094 7.0094 7.0094 7.0094 5.49898 5.49898 5.49898 5.49898 8.85557 8.85557 8.85557 8.85557 8.02507 8.02507 8.02507 8.02507 3.08022 3.08022 3.08022 3.08022 5.89686 5.89686 5.89686 5.89686 4.90544 4.90544 4.90544 4.90544 3.55591 3.55591 3.55591 3.55591 3.61846 3.61846 3.61846 3.61846 8.67283 8.67283 8.67283 8.67283 2.45462 2.45462 2.45462 2.45462 3.46149 3.46149 3.46149 3.46149 3.94482 3.94482 3.94482 3.94482 2.83972 2.83972 2.83972 2.83972 4.12568 4.12568 4.12568 4.12568 9.36879 9.36879 9.36879 9.36879 6.49855 6.49855 6.49855 6.49855 1.2694 1.2694 1.2694 1.2694 3.71054 3.71054 3.71054 3.71054 9.37446 9.37446 9.37446 9.37446 7.95314 7.95314 7.95314 7.95314 5.05179 5.05179 5.05179 5.05179 7.99482 7.99482 7.99482 7.99482 6.13604 6.13604 6.13604 6.13604 8.86483 8.86483 8.86483 8.86483 3.15192 3.15192 3.15192 3.15192 8.2308 8.2308 8.2308 8.2308 4.87431 4.87431 4.87431 4.87431 5.30034 5.30034 5.30034 5.30034 8.36023 8.36023 8.36023 8.36023 1.81949 1.81949 1.81949 1.81949 4.14655 4.14655 4.14655 4.14655 1.87631 1.87631 1.87631 1.87631 5.92588 5.92588 5.92588 5.92588 8.71647 8.71647 8.71647 8.71647 8.63096 8.63096 8.63096 8.63096 6.92961 6.92961 6.92961 6.92961 5.68222 5.68222 5.68222 5.68222 2.92088 2.92088 2.92088 2.92088 3.91433 3.91433 3.91433 3.91433 5.14028 5.14028 5.14028 5.14028 6.79699 6.79699 6.79699 6.79699 3.86035 3.86035 3.86035 3.86035 1.72555 1.72555 1.72555 1.72555 4.31768 4.31768 4.31768 4.31768 4.12776 4.12776 4.12776 4.12776 4.76876 4.76876 4.76876 4.76876 5.1009 5.1009 5.1009 5.1009 5.67904 5.67904 5.67904 5.67904 6.04787 6.04787 6.04787 6.04787 6.90784 6.90784 6.90784 6.90784 9.59515 9.59515 9.59515 9.59515 8.10938 8.10938 8.10938 8.10938 0.57263 0.57263 0.57263 0.57263 6.23935 6.23935 6.23935 6.23935 3.97892 3.97892 3.97892 3.97892 4.05357 4.05357 4.05357 4.05357 2.0472 2.0472 2.0472 2.0472 6.31838 6.31838 6.31838 6.31838 8.33432 8.33432 8.33432 8.33432 5.65037 5.65037 5.65037 5.65037 3.08843 3.08843 3.08843 3.08843 8.01288 8.01288 8.01288 8.01288 4.29079 4.29079 4.29079 4.29079 4.28168 4.28168 4.28168 4.28168 6.52447 6.52447 6.52447 6.52447 7.74125 7.74125 7.74125 7.74125 4.10769 4.10769 4.10769 4.10769 4.81667 4.81667 4.81667 4.81667 4.67163 4.67163 4.67163 4.67163 6.28992 6.28992 6.28992 6.28992 3.34356 3.34356 3.34356 3.34356 3.42511 3.42511 3.42511 3.42511 8.7238 8.7238 8.7238 8.7238 5.55387 5.55387 5.55387 5.55387 1.71132 1.71132 1.71132 1.71132 1.30895 1.30895 1.30895 1.30895 6.83647 6.83647 6.83647 6.83647 5.63716 5.63716 5.63716 5.63716 1.67719 1.67719 1.67719 1.67719 3.42963 3.42963 3.42963 3.42963 6.1933 6.1933 6.1933 6.1933 4.05628 4.05628 4.05628 4.05628 2.05221 2.05221 2.05221 2.05221 9.41247 9.41247 9.41247 9.41247 8.72475 8.72475 8.72475 8.72475 3.38727 3.38727 3.38727 3.38727 4.39578 4.39578 4.39578 4.39578 1.98703 1.98703 1.98703 1.98703 6.55593 6.55593 6.55593 6.55593 4.95577 4.95577 4.95577 4.95577 8.12359 8.12359 8.12359 8.12359 2.7527 2.7527 2.7527 2.7527 3.84128 3.84128 3.84128 3.84128 3.78394 3.78394 3.78394 3.78394 6.14556 6.14556 6.14556 6.14556 7.43211 7.43211 7.43211 7.43211 1.87603 1.87603 1.87603 1.87603 1.21335 1.21335 1.21335 1.21335 4.47878 4.47878 4.47878 4.47878 4.75717 4.75717 4.75717 4.75717 7.01558 7.01558 7.01558 7.01558 3.15411 3.15411 3.15411 3.15411 2.496 2.496 2.496 2.496 8.12506 8.12506 8.12506 8.12506 8.05132 8.05132 8.05132 8.05132 5.80172 5.80172 5.80172 5.80172 5.44925 5.44925 5.44925 5.44925 6.68393 6.68393 6.68393 6.68393 5.92974 5.92974 5.92974 5.92974 3.29222 3.29222 3.29222 3.29222 6.88573 6.88573 6.88573 6.88573 5.77679 5.77679 5.77679 5.77679 4.52683 4.52683 4.52683 4.52683 7.90026 7.90026 7.90026 7.90026 6.13832 6.13832 6.13832 6.13832 8.71094 8.71094 8.71094 8.71094 4.09972 4.09972 4.09972 4.09972 4.2322 4.2322 4.2322 4.2322 4.07769 4.07769 4.07769 4.07769 1.3193 1.3193 1.3193 1.3193 3.14367 3.14367 3.14367 3.14367 6.29766 6.29766 6.29766 6.29766 3.14341 3.14341 3.14341 3.14341 4.04642 4.04642 4.04642 4.04642 0.442939 0.442939 0.442939 0.442939 6.87465 6.87465 6.87465 6.87465 2.40703 2.40703 2.40703 2.40703 7.92198 7.92198 7.92198 7.92198 8.68234 8.68234 8.68234 8.68234 2.91548 2.91548 2.91548 2.91548 9.00583 9.00583 9.00583 9.00583 2.83684 2.83684 2.83684 2.83684 5.90121 5.90121 5.90121 5.90121 1.5105 1.5105 1.5105 1.5105 3.65639 3.65639 3.65639 3.65639 3.35348 3.35348 3.35348 3.35348 5.63027 5.63027 5.63027 5.63027 6.66211 6.66211 6.66211 6.66211 2.64901 2.64901 2.64901 2.64901 7.93226 7.93226 7.93226 7.93226 7.99041 7.99041 7.99041 7.99041 3.87628 3.87628 3.87628 3.87628 2.12751 2.12751 2.12751 2.12751 5.31362 5.31362 5.31362 5.31362 7.91475 7.91475 7.91475 7.91475 6.86798 6.86798 6.86798 6.86798 6.29528 6.29528 6.29528 6.29528 1.70572 1.70572 1.70572 1.70572 8.47711 8.47711 8.47711 8.47711 0.580266 0.580266 0.580266 0.580266 8.56895 8.56895 8.56895 8.56895 5.26641 5.26641 5.26641 5.26641 1.59014 1.59014 1.59014 1.59014 8.31963 8.31963 8.31963 8.31963 3.49175 3.49175 3.49175 3.49175 6.12255 6.12255 6.12255 6.12255 9.45204 9.45204 9.45204 9.45204 1.75589 1.75589 1.75589 1.75589 4.36762 4.36762 4.36762 4.36762 3.21558 3.21558 3.21558 3.21558 3.85746 3.85746 3.85746 3.85746 2.49489 2.49489 2.49489 2.49489 6.35279 6.35279 6.35279 6.35279 5.6024 5.6024 5.6024 5.6024 1.43307 1.43307 1.43307 1.43307 7.18671 7.18671 7.18671 7.18671 4.01677 4.01677 4.01677 4.01677 6.1158 6.1158 6.1158 6.1158 4.0137 4.0137 4.0137 4.0137 6.6706 6.6706 6.6706 6.6706 2.75195 2.75195 2.75195 2.75195 3.14277 3.14277 3.14277 3.14277 8.59951 8.59951 8.59951 8.59951 5.31376 5.31376 5.31376 5.31376 5.55136 5.55136 5.55136 5.55136 8.84063 8.84063 8.84063 8.84063 4.25005 4.25005 4.25005 4.25005 9.12648 9.12648 9.12648 9.12648 3.01821 3.01821 3.01821 3.01821 4.43455 4.43455 4.43455 4.43455 3.06583 3.06583 3.06583 3.06583 3.74055 3.74055 3.74055 3.74055 6.09654 6.09654 6.09654 6.09654 8.94476 8.94476 8.94476 8.94476 1.6047 1.6047 1.6047 1.6047 5.78602 5.78602 5.78602 5.78602 3.58062 3.58062 3.58062 3.58062 7.05532 7.05532 7.05532 7.05532 8.5767 8.5767 8.5767 8.5767 6.23813 6.23813 6.23813 6.23813 7.826 7.826 7.826 7.826 4.89145 4.89145 4.89145 4.89145 4.27894 4.27894 4.27894 4.27894 6.55793 6.55793 6.55793 6.55793 1.9166 1.9166 1.9166 1.9166 5.57965 5.57965 5.57965 5.57965 6.72979 6.72979 6.72979 6.72979 8.83155 8.83155 8.83155 8.83155 7.87285 7.87285 7.87285 7.87285 9.54486 9.54486 9.54486 9.54486 8.93174 8.93174 8.93174 8.93174 7.01243 7.01243 7.01243 7.01243 5.48975 5.48975 5.48975 5.48975 8.7964 8.7964 8.7964 8.7964 4.31501 4.31501 4.31501 4.31501 6.62642 6.62642 6.62642 6.62642 8.83479 8.83479 8.83479 8.83479 8.02578 8.02578 8.02578 8.02578 2.36273 2.36273 2.36273 2.36273 7.932 7.932 7.932 7.932 2.22296 2.22296 2.22296 2.22296 8.15193 8.15193 8.15193 8.15193 6.17978 6.17978 6.17978 6.17978 4.32031 4.32031 4.32031 4.32031 4.27427 4.27427 4.27427 4.27427 8.00951 8.00951 8.00951 8.00951 8.23907 8.23907 8.23907 8.23907 3.86989 3.86989 3.86989 3.86989 8.00075 8.00075 8.00075 8.00075 6.38728 6.38728 6.38728 6.38728 7.47065 7.47065 7.47065 7.47065 4.32757 4.32757 4.32757 4.32757 2.51576 2.51576 2.51576 2.51576 8.80126 8.80126 8.80126 8.80126 5.18747 5.18747 5.18747 5.18747 1.01053 1.01053 1.01053 1.01053 8.28264 8.28264 8.28264 8.28264 6.52356 6.52356 6.52356 6.52356 6.07899 6.07899 6.07899 6.07899 9.59047 9.59047 9.59047 9.59047 8.13195 8.13195 8.13195 8.13195 2.99555 2.99555 2.99555 2.99555 6.24145 6.24145 6.24145 6.24145 6.93837 6.93837 6.93837 6.93837 6.47902 6.47902 6.47902 6.47902 6.377 6.377 6.377 6.377 2.23982 2.23982 2.23982 2.23982 8.6373 8.6373 8.6373 8.6373 1.51013 1.51013 1.51013 1.51013 0.98978 0.98978 0.98978 0.98978 2.11028 2.11028 2.11028 2.11028 6.02904 6.02904 6.02904 6.02904 6.85281 6.85281 6.85281 6.85281 9.60015 9.60015 9.60015 9.60015 4.52325 4.52325 4.52325 4.52325 5.94793 5.94793 5.94793 5.94793 8.04624 8.04624 8.04624 8.04624 3.13328 3.13328 3.13328 3.13328 5.88923 5.88923 5.88923 5.88923 7.43491 7.43491 7.43491 7.43491 8.83429 8.83429 8.83429 8.83429 5.89553 5.89553 5.89553 5.89553 8.68461 8.68461 8.68461 8.68461 3.81791 3.81791 3.81791 3.81791 7.45624 7.45624 7.45624 7.45624 9.44446 9.44446 9.44446 9.44446 7.36819 7.36819 7.36819 7.36819 8.87385 8.87385 8.87385 8.87385 6.72097 6.72097 6.72097 6.72097 5.93107 5.93107 5.93107 5.93107 3.9244 3.9244 3.9244 3.9244 8.60062 8.60062 8.60062 8.60062 2.96884 2.96884 2.96884 2.96884 3.88224 3.88224 3.88224 3.88224 7.8151 7.8151 7.8151 7.8151 1.66422 1.66422 1.66422 1.66422 4.18685 4.18685 4.18685 4.18685 7.20382 7.20382 7.20382 7.20382 1.73933 1.73933 1.73933 1.73933 0.469118 0.469118 0.469118 0.469118 1.7508 1.7508 1.7508 1.7508 4.58604 4.58604 4.58604 4.58604 3.71525 3.71525 3.71525 3.71525 1.22852 1.22852 1.22852 1.22852 8.15904 8.15904 8.15904 8.15904 8.92058 8.92058 8.92058 8.92058 6.50951 6.50951 6.50951 6.50951 6.10014 6.10014 6.10014 6.10014 5.66839 5.66839 5.66839 5.66839 8.92302 8.92302 8.92302 8.92302 0.988803 0.988803 0.988803 0.988803 8.1371 8.1371 8.1371 8.1371 5.0288 5.0288 5.0288 5.0288 9.45054 9.45054 9.45054 9.45054 6.52075 6.52075 6.52075 6.52075 6.77945 6.77945 6.77945 6.77945 6.86296 6.86296 6.86296 6.86296 1.84461 1.84461 1.84461 1.84461 0.996722 0.996722 0.996722 0.996722 6.28937 6.28937 6.28937 6.28937 6.99753 6.99753 6.99753 6.99753 6.90648 6.90648 6.90648 6.90648 2.31183 2.31183 2.31183 2.31183 7.86535 7.86535 7.86535 7.86535 7.27129 7.27129 7.27129 7.27129 8.73415 8.73415 8.73415 8.73415 1.25944 1.25944 1.25944 1.25944 4.78934 4.78934 4.78934 4.78934 4.11337 4.11337 4.11337 4.11337 3.94937 3.94937 3.94937 3.94937 6.28079 6.28079 6.28079 6.28079 5.7723 5.7723 5.7723 5.7723 6.38736 6.38736 6.38736 6.38736 2.31089 2.31089 2.31089 2.31089 7.39006 7.39006 7.39006 7.39006 6.37134 6.37134 6.37134 6.37134 8.75688 8.75688 8.75688 8.75688 3.33276 3.33276 3.33276 3.33276 8.984 8.984 8.984 8.984 7.92721 7.92721 7.92721 7.92721 3.11658 3.11658 3.11658 3.11658 5.7655 5.7655 5.7655 5.7655 1.96688 1.96688 1.96688 1.96688 3.32357 3.32357 3.32357 3.32357 5.19821 5.19821 5.19821 5.19821 8.0618 8.0618 8.0618 8.0618 2.36397 2.36397 2.36397 2.36397 7.88437 7.88437 7.88437 7.88437 3.03606 3.03606 3.03606 3.03606 6.01897 6.01897 6.01897 6.01897 6.90798 6.90798 6.90798 6.90798 8.8787 8.8787 8.8787 8.8787 5.78136 5.78136 5.78136 5.78136 3.95115 3.95115 3.95115 3.95115 9.59446 9.59446 9.59446 9.59446 2.94992 2.94992 2.94992 2.94992 8.25265 8.25265 8.25265 8.25265 8.773 8.773 8.773 8.773 4.72164 4.72164 4.72164 4.72164 8.99808 8.99808 8.99808 8.99808 3.68792 3.68792 3.68792 3.68792 1.71898 1.71898 1.71898 1.71898 1.02357 1.02357 1.02357 1.02357 1.91983 1.91983 1.91983 1.91983 6.52235 6.52235 6.52235 6.52235 7.79922 7.79922 7.79922 7.79922 8.74296 8.74296 8.74296 8.74296 5.48028 5.48028 5.48028 5.48028 9.55492 9.55492 9.55492 9.55492 8.00545 8.00545 8.00545 8.00545 5.52592 5.52592 5.52592 5.52592 8.93383 8.93383 8.93383 8.93383 6.88296 6.88296 6.88296 6.88296 1.73818 1.73818 1.73818 1.73818 4.79135 4.79135 4.79135 4.79135 3.21403 3.21403 3.21403 3.21403 6.31228 6.31228 6.31228 6.31228 6.02823 6.02823 6.02823 6.02823 9.55061 9.55061 9.55061 9.55061 8.13418 8.13418 8.13418 8.13418 8.84893 8.84893 8.84893 8.84893 1.07201 1.07201 1.07201 1.07201 7.1165 7.1165 7.1165 7.1165 4.79814 4.79814 4.79814 4.79814 2.64797 2.64797 2.64797 2.64797 2.76735 2.76735 2.76735 2.76735 3.13295 3.13295 3.13295 3.13295 3.63165 3.63165 3.63165 3.63165 2.33593 2.33593 2.33593 2.33593 8.2889 8.2889 8.2889 8.2889 6.16589 6.16589 6.16589 6.16589 1.57387 1.57387 1.57387 1.57387 8.62479 8.62479 8.62479 8.62479 1.84994 1.84994 1.84994 1.84994 7.94331 7.94331 7.94331 7.94331 8.2663 8.2663 8.2663 8.2663 5.9168 5.9168 5.9168 5.9168 2.05402 2.05402 2.05402 2.05402 3.08573 3.08573 3.08573 3.08573 5.39014 5.39014 5.39014 5.39014 7.23245 7.23245 7.23245 7.23245 6.87261 6.87261 6.87261 6.87261 5.37469 5.37469 5.37469 5.37469 5.34574 5.34574 5.34574 5.34574 3.09404 3.09404 3.09404 3.09404 6.96008 6.96008 6.96008 6.96008 6.28063 6.28063 6.28063 6.28063 6.9661 6.9661 6.9661 6.9661 9.55826 9.55826 9.55826 9.55826 2.56145 2.56145 2.56145 2.56145 1.16367 1.16367 1.16367 1.16367 8.0332 8.0332 8.0332 8.0332 7.59931 7.59931 7.59931 7.59931 7.57584 7.57584 7.57584 7.57584 8.91864 8.91864 8.91864 8.91864 6.21463 6.21463 6.21463 6.21463 7.02215 7.02215 7.02215 7.02215 8.02432 8.02432 8.02432 8.02432 8.81665 8.81665 8.81665 8.81665 6.96567 6.96567 6.96567 6.96567 8.25305 8.25305 8.25305 8.25305 4.60407 4.60407 4.60407 4.60407 7.95642 7.95642 7.95642 7.95642 6.29406 6.29406 6.29406 6.29406 8.85656 8.85656 8.85656 8.85656 5.2803 5.2803 5.2803 5.2803 8.01977 8.01977 8.01977 8.01977 7.43675 7.43675 7.43675 7.43675 7.86536 7.86536 7.86536 7.86536 5.57666 5.57666 5.57666 5.57666 6.2722 6.2722 6.2722 6.2722 1.85653 1.85653 1.85653 1.85653 8.2653 8.2653 8.2653 8.2653 6.42139 6.42139 6.42139 6.42139 1.26124 1.26124 1.26124 1.26124 6.88793 6.88793 6.88793 6.88793 9.4713 9.4713 9.4713 9.4713 4.7784 4.7784 4.7784 4.7784 4.50977 4.50977 4.50977 4.50977 3.97987 3.97987 3.97987 3.97987 4.05509 4.05509 4.05509 4.05509 5.53508 5.53508 5.53508 5.53508 8.16516 8.16516 8.16516 8.16516 6.55128 6.55128 6.55128 6.55128 8.12867 8.12867 8.12867 8.12867 8.2091 8.2091 8.2091 8.2091 7.23028 7.23028 7.23028 7.23028 3.64131 3.64131 3.64131 3.64131 3.69388 3.69388 3.69388 3.69388 2.80187 2.80187 2.80187 2.80187 8.17666 8.17666 8.17666 8.17666 5.42056 5.42056 5.42056 5.42056 1.97641 1.97641 1.97641 1.97641 6.26757 6.26757 6.26757 6.26757 8.34552 8.34552 8.34552 8.34552 6.99804 6.99804 6.99804 6.99804 5.28698 5.28698 5.28698 5.28698 1.09914 1.09914 1.09914 1.09914 3.12703 3.12703 3.12703 3.12703 4.74078 4.74078 4.74078 4.74078 0.967184 0.967184 0.967184 0.967184 5.83299 5.83299 5.83299 5.83299 3.93736 3.93736 3.93736 3.93736 8.83976 8.83976 8.83976 8.83976 6.8538 6.8538 6.8538 6.8538 4.91835 4.91835 4.91835 4.91835 5.42877 5.42877 5.42877 5.42877 6.29717 6.29717 6.29717 6.29717 1.925 1.925 1.925 1.925 7.43093 7.43093 7.43093 7.43093 1.87682 1.87682 1.87682 1.87682 8.96211 8.96211 8.96211 8.96211 8.78289 8.78289 8.78289 8.78289 2.01072 2.01072 2.01072 2.01072 8.37134 8.37134 8.37134 8.37134 7.3741 7.3741 7.3741 7.3741 1.99739 1.99739 1.99739 1.99739 3.58482 3.58482 3.58482 3.58482 5.91792 5.91792 5.91792 5.91792 7.94548 7.94548 7.94548 7.94548 1.04739 1.04739 1.04739 1.04739 1.62274 1.62274 1.62274 1.62274 3.06854 3.06854 3.06854 3.06854 7.9034 7.9034 7.9034 7.9034 4.30429 4.30429 4.30429 4.30429 9.01495 9.01495 9.01495 9.01495 4.39382 4.39382 4.39382 4.39382 8.93166 8.93166 8.93166 8.93166 1.03087 1.03087 1.03087 1.03087 6.10509 6.10509 6.10509 6.10509 0.507948 0.507948 0.507948 0.507948 8.79845 8.79845 8.79845 8.79845 1.2738 1.2738 1.2738 1.2738 6.84831 6.84831 6.84831 6.84831 8.83037 8.83037 8.83037 8.83037 6.71593 6.71593 6.71593 6.71593 7.06002 7.06002 7.06002 7.06002 3.9139 3.9139 3.9139 3.9139 0.480182 0.480182 0.480182 0.480182 1.12404 1.12404 1.12404 1.12404 1.81669 1.81669 1.81669 1.81669 8.88936 8.88936 8.88936 8.88936 8.75091 8.75091 8.75091 8.75091 7.70203 7.70203 7.70203 7.70203 4.96703 4.96703 4.96703 4.96703 1.16782 1.16782 1.16782 1.16782 9.00445 9.00445 9.00445 9.00445 0.437671 0.437671 0.437671 0.437671 1.1273 1.1273 1.1273 1.1273 0.458624 0.458624 0.458624 0.458624 9.55363 9.55363 9.55363 9.55363 8.18103 8.18103 8.18103 8.18103 9.58784 9.58784 9.58784 9.58784 7.46361 7.46361 7.46361 7.46361 0.50911 0.50911 0.50911 0.50911 1.83043 1.83043 1.83043 1.83043 3.2735 3.2735 3.2735 3.2735 1.89614 1.89614 1.89614 1.89614 1.2946 1.2946 1.2946 1.2946 2.7196 2.7196 2.7196 2.7196 3.66232 3.66232 3.66232 3.66232 1.96795 1.96795 1.96795 1.96795 4.04135 4.04135 4.04135 4.04135 0.313368 0.313368 0.313368 0.313368 4.69057 4.69057 4.69057 4.69057 5.15978 5.15978 5.15978 5.15978 6.25695 6.25695 6.25695 6.25695 1.19542 1.19542 1.19542 1.19542 8.03082 8.03082 8.03082 8.03082 0.939262 0.939262 0.939262 0.939262 3.60515 3.60515 3.60515 3.60515 8.74376 8.74376 8.74376 8.74376 3.48392 3.48392 3.48392 3.48392 4.31088 4.31088 4.31088 4.31088 4.21093 4.21093 4.21093 4.21093 9.52311 9.52311 9.52311 9.52311 2.84031 2.84031 2.84031 2.84031 5.25139 5.25139 5.25139 5.25139 6.11454 6.11454 6.11454 6.11454 8.93863 8.93863 8.93863 8.93863 6.30309 6.30309 6.30309 6.30309 8.89253 8.89253 8.89253 8.89253 6.5642 6.5642 6.5642 6.5642 6.52466 6.52466 6.52466 6.52466 6.40248 6.40248 6.40248 6.40248 7.18215 7.18215 7.18215 7.18215 2.35421 2.35421 2.35421 2.35421 9.45275 9.45275 9.45275 9.45275 1.85052 1.85052 1.85052 1.85052 3.16061 3.16061 3.16061 3.16061 8.91361 8.91361 8.91361 8.91361 4.89794 4.89794 4.89794 4.89794 7.51782 7.51782 7.51782 7.51782 6.816 6.816 6.816 6.816 6.19008 6.19008 6.19008 6.19008 4.32268 4.32268 4.32268 4.32268 7.2027 7.2027 7.2027 7.2027 8.87401 8.87401 8.87401 8.87401 8.10062 8.10062 8.10062 8.10062 2.84121 2.84121 2.84121 2.84121 5.74909 5.74909 5.74909 5.74909 9.61037 9.61037 9.61037 9.61037 6.35558 6.35558 6.35558 6.35558 1.92169 1.92169 1.92169 1.92169 8.26594 8.26594 8.26594 8.26594 5.28513 5.28513 5.28513 5.28513 5.35973 5.35973 5.35973 5.35973 4.71659 4.71659 4.71659 4.71659 8.79358 8.79358 8.79358 8.79358 6.50417 6.50417 6.50417 6.50417 1.19976 1.19976 1.19976 1.19976 2.00078 2.00078 2.00078 2.00078 8.15413 8.15413 8.15413 8.15413 0.404174 0.404174 0.404174 0.404174 1.94665 1.94665 1.94665 1.94665 4.48598 4.48598 4.48598 4.48598 2.34721 2.34721 2.34721 2.34721 3.17013 3.17013 3.17013 3.17013 6.63249 6.63249 6.63249 6.63249 3.86817 3.86817 3.86817 3.86817 3.58311 3.58311 3.58311 3.58311 0.9449 0.9449 0.9449 0.9449 3.94053 3.94053 3.94053 3.94053 9.50935 9.50935 9.50935 9.50935 4.02016 4.02016 4.02016 4.02016 5.15353 5.15353 5.15353 5.15353 9.01145 9.01145 9.01145 9.01145 2.51558 2.51558 2.51558 2.5