# vtk DataFile Version 3.0
vtk output
ASCII
DATASET UNSTRUCTURED_GRID
POINTS 1722 float
0.75	1.5	0	
0.75	1.6875	0	
0.556695	1.522	0	
6.75	1.6875	0	
6.75	1.5	0	
6.9433	1.522	0	
0.75	1.125	0	
0.75	1.3125	0	
0.558219	1.2844	0	
6.75	1.3125	0	
6.75	1.125	0	
6.94178	1.2844	0	
7.23361	0.271932	0	
7.08354	0.448395	0	
7.03319	0.177224	0	
0.416455	0.448395	0	
0.266395	0.271932	0	
0.42802	0.182817	0	
7.08354	0.448395	0	
7.23361	0.271932	0	
7.32655	0.43998	0	
0.266395	0.271932	0	
0.416455	0.448395	0	
0.173449	0.43998	0	
0.787489	0.335177	0	
0.602375	0.265379	0	
0.738215	0.154296	0	
0.556695	1.522	0	
0.75	1.6875	0	
0.604119	1.72407	0	
6.75	1.6875	0	
6.9433	1.522	0	
6.89588	1.72407	0	
6.94178	1.2844	0	
6.75	1.125	0	
6.8959	1.08811	0	
0.75	1.125	0	
0.558219	1.2844	0	
0.604097	1.08811	0	
7.08354	0.448395	0	
6.8668	0.288039	0	
7.03319	0.177224	0	
0.602375	0.265379	0	
0.416455	0.448395	0	
0.42802	0.182817	0	
1.55	0.75	0	
1.35	0.75	0	
1.4606	0.549781	0	
6.8668	0.288039	0	
7.08354	0.448395	0	
6.84562	0.478216	0	
0.416455	0.448395	0	
0.602375	0.265379	0	
0.65438	0.478216	0	
7.25406	0.619554	0	
7.08354	0.448395	0	
7.32655	0.43998	0	
0.416455	0.448395	0	
0.245942	0.619554	0	
0.173449	0.43998	0	
5.95	0.75	0	
5.75	0.75	0	
5.83909	0.540001	0	
7.08354	0.448395	0	
7.25406	0.619554	0	
7.10534	0.692465	0	
0.245942	0.619554	0	
0.416455	0.448395	0	
0.394659	0.692465	0	
6.65	0.379224	0	
6.8668	0.288039	0	
6.84562	0.478216	0	
0.602375	0.265379	0	
0.787489	0.335177	0	
0.65438	0.478216	0	
1.95	0.75	0	
1.75	0.75	0	
1.8586	0.550374	0	
7.5	0.6	0	
7.25406	0.619554	0	
7.32655	0.43998	0	
0.245942	0.619554	0	
0	0.6	0	
0.173449	0.43998	0	
0.592105	0	0	
0.602375	0.265379	0	
0.42802	0.182817	0	
5.55	0.75	0	
5.35	0.75	0	
5.44334	0.550798	0	
2.35	0.75	0	
2.15	0.75	0	
2.25471	0.551236	0	
0.919633	0.170925	0	
0.787489	0.335177	0	
0.738215	0.154296	0	
5.15	0.75	0	
4.95	0.75	0	
5.04723	0.551687	0	
1.4606	0.549781	0	
1.35	0.75	0	
1.22598	0.562806	0	
2.75	0.75	0	
2.55	0.75	0	
2.65083	0.552152	0	
6.95871	0.623061	0	
7.08354	0.448395	0	
7.10534	0.692465	0	
0.416455	0.448395	0	
0.541288	0.623061	0	
0.394659	0.692465	0	
4.75	0.75	0	
4.55	0.75	0	
4.65111	0.552631	0	
3.15	0.75	0	
2.95	0.75	0	
3.04695	0.553123	0	
3.75	0	0	
3.94737	0	0	
3.85764	0.195446	0	
3.35526	0	0	
3.55263	0	0	
3.44502	0.195286	0	
6.51637	0.218294	0	
6.51316	0	0	
6.69575	0.179877	0	
4.14474	0	0	
4.34211	0	0	
4.25232	0.195097	0	
4.35	0.75	0	
4.15	0.75	0	
4.25499	0.553628	0	
2.96053	0	0	
3.15789	0	0	
3.05034	0.194914	0	
4.53947	0	0	
4.73684	0	0	
4.647	0.194736	0	
2.56579	0	0	
2.76316	0	0	
2.65566	0.194564	0	
4.93421	0	0	
5.13158	0	0	
5.04168	0.194396	0	
2.17105	0	0	
2.36842	0	0	
2.26098	0.194234	0	
5.32895	0	0	
5.52632	0	0	
5.43636	0.194077	0	
1.77632	0	0	
1.97368	0	0	
1.86629	0.193926	0	
5.72368	0	0	
5.92105	0	0	
5.82856	0.208382	0	
3.55	0.75	0	
3.35	0.75	0	
3.44333	0.55408	0	
1.38158	0	0	
1.57895	0	0	
1.4715	0.193536	0	
3.95	0.75	0	
3.75	0.75	0	
3.85829	0.554477	0	
6.51316	0	0	
6.71053	0	0	
6.69575	0.179877	0	
0	0.6	0	
0.245942	0.619554	0	
0.116612	0.714129	0	
7.25406	0.619554	0	
7.5	0.6	0	
7.38339	0.714129	0	
6.11842	0	0	
6.31579	0	0	
6.17763	0.199505	0	
7.08354	0.448395	0	
6.95871	0.623061	0	
6.84562	0.478216	0	
0.541288	0.623061	0	
0.416455	0.448395	0	
0.65438	0.478216	0	
7.25683	1.77066	0	
7.04404	1.69322	0	
7.12828	1.56007	0	
0.45596	1.69322	0	
0.243169	1.77066	0	
0.371716	1.56007	0	
7.04425	1.11919	0	
7.26353	1.03527	0	
7.13003	1.25193	0	
0.23647	1.03527	0	
0.455745	1.11919	0	
0.369974	1.25193	0	
1.8586	0.550374	0	
1.75	0.75	0	
1.65597	0.560492	0	
6.50103	0.523214	0	
6.55	0.75	0	
6.33034	0.602068	0	
5.95	0.75	0	
5.83909	0.540001	0	
6.02241	0.580052	0	
0.457883	2.25035	0	
0.233167	2.3381	0	
0.351028	2.14315	0	
7.26683	2.3381	0	
7.04212	2.25035	0	
7.14897	2.14315	0	
6.55	0.75	0	
6.35	0.75	0	
6.33034	0.602068	0	
5.55	0.75	0	
5.44334	0.550798	0	
5.6509	0.555507	0	
6.17763	0.199505	0	
6.31579	0	0	
6.36371	0.15739	0	
7.3125	3	0	
7.12482	2.85696	0	
7.34835	2.84639	0	
0.375178	2.85696	0	
0.1875	3	0	
0.151654	2.84639	0	
2.25471	0.551236	0	
2.15	0.75	0	
2.05267	0.561203	0	
7.28717	1.2482	0	
7.5	1.2	0	
7.34003	1.40731	0	
0	1.2	0	
0.212829	1.2482	0	
0.159965	1.40731	0	
0.5625	3	0	
0.375178	2.85696	0	
0.59952	2.85545	0	
7.12482	2.85696	0	
6.9375	3	0	
6.90048	2.85545	0	
0.23647	1.03527	0	
0	1	0	
0.220504	0.83696	0	
7.5	1	0	
7.26353	1.03527	0	
7.2795	0.83696	0	
5.15	0.75	0	
5.04723	0.551687	0	
5.24909	0.561588	0	
7.25406	0.619554	0	
7.2795	0.83696	0	
7.10534	0.692465	0	
0.220504	0.83696	0	
0.245942	0.619554	0	
0.394659	0.692465	0	
6.8668	0.288039	0	
6.65	0.379224	0	
6.69575	0.179877	0	
0.602375	0.265379	0	
0.592105	0	0	
0.738215	0.154296	0	
2.65083	0.552152	0	
2.55	0.75	0	
2.44436	0.557989	0	
7.28695	1.56625	0	
7.25683	1.77066	0	
7.12828	1.56007	0	
0.243169	1.77066	0	
0.213051	1.56625	0	
0.371716	1.56007	0	
7.5	1.2	0	
7.5	1.4	0	
7.34003	1.40731	0	
0	1.4	0	
0	1.2	0	
0.159965	1.40731	0	
7.26353	1.03527	0	
7.28717	1.2482	0	
7.13003	1.25193	0	
0.212829	1.2482	0	
0.23647	1.03527	0	
0.369974	1.25193	0	
1.36153	0.369478	0	
1.4606	0.549781	0	
1.22598	0.562806	0	
4.75	0.75	0	
4.65111	0.552631	0	
4.8572	0.55828	0	
3.04695	0.553123	0	
2.95	0.75	0	
2.84124	0.55858	0	
0.233167	2.3381	0	
0.208273	2.11425	0	
0.351028	2.14315	0	
7.29173	2.11425	0	
7.26683	2.3381	0	
7.14897	2.14315	0	
0.236767	2.72141	0	
0.215231	2.54333	0	
0.3756	2.67849	0	
7.28477	2.54333	0	
7.26323	2.72141	0	
7.1244	2.67849	0	
4.35	0.75	0	
4.25499	0.553628	0	
4.46032	0.558889	0	
7.3125	3	0	
7.125	3	0	
7.12482	2.85696	0	
0.375	3	0	
0.1875	3	0	
0.375178	2.85696	0	
0	2.4	0	
0.233167	2.3381	0	
0.215231	2.54333	0	
7.26683	2.3381	0	
7.5	2.4	0	
7.28477	2.54333	0	
1.36153	0.369478	0	
1.4715	0.193536	0	
1.55122	0.371627	0	
5.82856	0.208382	0	
6.00307	0.36808	0	
5.75113	0.372361	0	
1.75713	0.371043	0	
1.86629	0.193926	0	
1.94657	0.372348	0	
3.85764	0.195446	0	
3.96661	0.374796	0	
3.80595	0.374934	0	
5.43636	0.194077	0	
5.54551	0.371414	0	
5.35594	0.372681	0	
2.15185	0.371797	0	
2.26098	0.194234	0	
2.35173	0.372791	0	
5.04168	0.194396	0	
5.15079	0.372192	0	
4.95062	0.37311	0	
2.54657	0.3726	0	
2.65566	0.194564	0	
2.74703	0.373438	0	
3.336	0.374355	0	
3.44502	0.195286	0	
3.49689	0.374527	0	
4.647	0.194736	0	
4.75607	0.37302	0	
4.55533	0.373776	0	
4.25232	0.195097	0	
4.36136	0.373898	0	
4.16002	0.374469	0	
2.94129	0.373453	0	
3.05034	0.194914	0	
3.14232	0.374123	0	
3.44333	0.55408	0	
3.35	0.75	0	
3.23816	0.559195	0	
3.96661	0.374796	0	
3.85829	0.554477	0	
3.80595	0.374934	0	
3.44333	0.55408	0	
3.336	0.374355	0	
3.49689	0.374527	0	
7.5	2	0	
7.5	2.2	0	
7.29173	2.11425	0	
0	2.2	0	
0	2	0	
0.208273	2.11425	0	
4.36136	0.373898	0	
4.25499	0.553628	0	
4.16002	0.374469	0	
7.2795	0.83696	0	
7.10967	0.847159	0	
7.10534	0.692465	0	
0.390332	0.847159	0	
0.220504	0.83696	0	
0.394659	0.692465	0	
3.04695	0.553123	0	
2.94129	0.373453	0	
3.14232	0.374123	0	
4.75607	0.37302	0	
4.65111	0.552631	0	
4.55533	0.373776	0	
3.75	0	0	
3.85764	0.195446	0	
3.65131	0.216449	0	
2.65083	0.552152	0	
2.54657	0.3726	0	
2.74703	0.373438	0	
3.85764	0.195446	0	
3.94737	0	0	
4.06148	0.189901	0	
1.06883	0.508923	0	
0.866638	0.559109	0	
0.974591	0.36305	0	
5.15079	0.372192	0	
5.04723	0.551687	0	
4.95062	0.37311	0	
3.44502	0.195286	0	
3.55263	0	0	
3.65131	0.216449	0	
2.25471	0.551236	0	
2.15185	0.371797	0	
2.35173	0.372791	0	
3.35526	0	0	
3.44502	0.195286	0	
3.24119	0.189695	0	
0.233167	2.3381	0	
0.457883	2.25035	0	
0.375147	2.3936	0	
7.04212	2.25035	0	
7.26683	2.3381	0	
7.12485	2.3936	0	
5.54551	0.371414	0	
5.44334	0.550798	0	
5.35594	0.372681	0	
4.14474	0	0	
4.25232	0.195097	0	
4.06148	0.189901	0	
1.8586	0.550374	0	
1.75713	0.371043	0	
1.94657	0.372348	0	
4.25232	0.195097	0	
4.34211	0	0	
4.45612	0.189485	0	
6.00307	0.36808	0	
5.83909	0.540001	0	
5.75113	0.372361	0	
3.05034	0.194914	0	
3.15789	0	0	
3.24119	0.189695	0	
1.4606	0.549781	0	
1.36153	0.369478	0	
1.55122	0.371627	0	
2.96053	0	0	
3.05034	0.194914	0	
2.84656	0.18928	0	
3.95	0.75	0	
3.85829	0.554477	0	
4.06335	0.559494	0	
3.85829	0.554477	0	
3.96661	0.374796	0	
4.06335	0.559494	0	
4.53947	0	0	
4.647	0.194736	0	
4.45612	0.189485	0	
4.647	0.194736	0	
4.73684	0	0	
4.85076	0.189082	0	
2.65566	0.194564	0	
2.76316	0	0	
2.84656	0.18928	0	
2.56579	0	0	
2.65566	0.194564	0	
2.45192	0.18889	0	
3.336	0.374355	0	
3.44333	0.55408	0	
3.23816	0.559195	0	
4.93421	0	0	
5.04168	0.194396	0	
4.85076	0.189082	0	
3.96661	0.374796	0	
3.85764	0.195446	0	
4.06148	0.189901	0	
5.04168	0.194396	0	
5.13158	0	0	
5.24541	0.188704	0	
1.55	0.75	0	
1.4606	0.549781	0	
1.65597	0.560492	0	
2.26098	0.194234	0	
2.36842	0	0	
2.45192	0.18889	0	
3.44502	0.195286	0	
3.336	0.374355	0	
3.24119	0.189695	0	
2.17105	0	0	
2.26098	0.194234	0	
2.05727	0.188524	0	
4.25499	0.553628	0	
4.36136	0.373898	0	
4.46032	0.558889	0	
5.32895	0	0	
5.43636	0.194077	0	
5.24541	0.188704	0	
4.36136	0.373898	0	
4.25232	0.195097	0	
4.45612	0.189485	0	
5.43636	0.194077	0	
5.52632	0	0	
5.63964	0.190784	0	
0.5625	3	0	
0.375	3	0	
0.375178	2.85696	0	
7.125	3	0	
6.9375	3	0	
7.12482	2.85696	0	
1.86629	0.193926	0	
1.97368	0	0	
2.05727	0.188524	0	
2.94129	0.373453	0	
3.04695	0.553123	0	
2.84124	0.55858	0	
1.77632	0	0	
1.86629	0.193926	0	
1.6626	0.188166	0	
3.05034	0.194914	0	
2.94129	0.373453	0	
2.84656	0.18928	0	
6.90789	0	0	
7.03319	0.177224	0	
6.84283	0.129028	0	
5.72368	0	0	
5.82856	0.208382	0	
5.63964	0.190784	0	
4.75607	0.37302	0	
4.647	0.194736	0	
4.85076	0.189082	0	
4.65111	0.552631	0	
4.75607	0.37302	0	
4.8572	0.55828	0	
1.4715	0.193536	0	
1.57895	0	0	
1.6626	0.188166	0	
5.83909	0.540001	0	
5.75	0.75	0	
5.6509	0.555507	0	
1.38158	0	0	
1.4715	0.193536	0	
1.24133	0.181301	0	
2.65566	0.194564	0	
2.54657	0.3726	0	
2.45192	0.18889	0	
2.54657	0.3726	0	
2.65083	0.552152	0	
2.44436	0.557989	0	
5.15079	0.372192	0	
5.04168	0.194396	0	
5.24541	0.188704	0	
0.213051	1.56625	0	
0	1.6	0	
0.159965	1.40731	0	
7.5	1.6	0	
7.28695	1.56625	0	
7.34003	1.40731	0	
5.04723	0.551687	0	
5.15079	0.372192	0	
5.24909	0.561588	0	
2.26098	0.194234	0	
2.15185	0.371797	0	
2.05727	0.188524	0	
1.95	0.75	0	
1.8586	0.550374	0	
2.05267	0.561203	0	
[...]
CELL_DATA 574
POINT_DATA 1722
SCALARS Pressure float 
LOOKUP_TABLE default
9.37863 9.37863 9.37863 5.62137 5.62137 5.62137 9.25555 9.25555 9.25555 5.74452 5.74452 5.74452 6.10001 6.10001 6.10001 8.90428 8.90428 8.90428 6.06995 6.06995 6.06995 8.93072 8.93072 8.93072 8.82304 8.82304 8.82304 9.41844 9.41844 9.41844 5.58156 5.58156 5.58156 5.78045 5.78045 5.78045 9.21975 9.21975 9.21975 6.10845 6.10845 6.10845 8.8963 8.8963 8.8963 8.49637 8.49637 8.49637 6.11908 6.11908 6.11908 8.88589 8.88589 8.88589 6.05554 6.05554 6.05554 8.94515 8.94515 8.94515 6.59316 6.59316 6.59316 6.04182 6.04182 6.04182 8.9589 8.9589 8.9589 6.18466 6.18466 6.18466 8.83203 8.83203 8.83203 8.32338 8.32338 8.32338 6.05691 6.05691 6.05691 8.94378 8.94378 8.94378 8.88939 8.88939 8.88939 6.76392 6.76392 6.76392 8.15082 8.15082 8.15082 8.77961 8.77961 8.77961 6.93618 6.93618 6.93618 8.5425 8.5425 8.5425 7.97789 7.97789 7.97789 6.04457 6.04457 6.04457 8.95633 8.95633 8.95633 7.1091 7.1091 7.1091 7.80518 7.80518 7.80518 7.45341 7.45341 7.45341 7.63285 7.63285 7.63285 6.26764 6.26764 6.26764 7.28377 7.28377 7.28377 7.28181 7.28181 7.28181 7.80248 7.80248 7.80248 7.11253 7.11253 7.11253 7.97373 7.97373 7.97373 6.94121 6.94121 6.94121 8.14502 8.14502 8.14502 6.7702 6.7702 6.7702 8.31621 8.31621 8.31621 6.60121 6.60121 6.60121 7.63401 7.63401 7.63401 8.48904 8.48904 8.48904 7.45302 7.45302 7.45302 6.22543 6.22543 6.22543 8.97308 8.97308 8.97308 6.02742 6.02742 6.02742 6.43797 6.43797 6.43797 6.09319 6.09319 6.09319 8.90848 8.90848 8.90848 5.55738 5.55738 5.55738 9.44262 9.44262 9.44262 5.81387 5.81387 5.81387 9.1861 9.1861 9.1861 8.36593 8.36593 8.36593 6.33187 6.33187 6.33187 6.55564 6.55564 6.55564 9.68315 9.68315 9.68315 5.31685 5.31685 5.31685 6.36975 6.36975 6.36975 6.72039 6.72039 6.72039 6.39906 6.39906 6.39906 5.05218 5.05218 5.05218 9.94782 9.94782 9.94782 8.19314 8.19314 8.19314 5.74724 5.74724 5.74724 9.25272 9.25272 9.25272 9.94874 9.94874 9.94874 5.05126 5.05126 5.05126 9.11493 9.11493 9.11493 5.88497 5.88497 5.88497 6.89389 6.89389 6.89389 5.98301 5.98301 5.98301 9.01733 9.01733 9.01733 6.19773 6.19773 6.19773 8.86215 8.86215 8.86215 8.02124 8.02124 8.02124 5.59848 5.59848 5.59848 9.40152 9.40152 9.40152 5.70657 5.70657 5.70657 9.29339 9.29339 9.29339 5.77378 5.77378 5.77378 9.22615 9.22615 9.22615 8.54121 8.54121 8.54121 7.06577 7.06577 7.06577 7.84844 7.84844 7.84844 9.64507 9.64507 9.64507 5.35493 5.35493 5.35493 9.8517 9.8517 9.8517 5.1483 5.1483 5.1483 7.23857 7.23857 7.23857 5.01866 5.01866 5.01866 9.98134 9.98134 9.98134 9.75061 9.75061 9.75061 5.24939 5.24939 5.24939 8.49312 8.49312 8.49312 6.58739 6.58739 6.58739 8.32114 8.32114 8.32114 7.44785 7.44785 7.44785 6.76508 6.76508 6.76508 8.14878 8.14878 8.14878 6.9375 6.9375 6.9375 7.97745 7.97745 7.97745 7.63837 7.63837 7.63837 7.10883 7.10883 7.10883 7.28003 7.28003 7.28003 7.80624 7.80624 7.80624 7.67691 7.67691 7.67691 7.44768 7.44768 7.44768 7.63879 7.63879 7.63879 5.38362 5.38362 5.38362 9.61638 9.61638 9.61638 7.27933 7.27933 7.27933 5.95497 5.95497 5.95497 9.04498 9.04498 9.04498 7.80712 7.80712 7.80712 7.10776 7.10776 7.10776 7.50047 7.50047 7.50047 7.97869 7.97869 7.97869 7.41098 7.41098 7.41098 8.69986 8.69986 8.69986 6.93625 6.93625 6.93625 7.58579 7.58579 7.58579 8.15023 8.15023 8.15023 7.67527 7.67527 7.67527 9.70473 9.70473 9.70473 5.29527 5.29527 5.29527 6.76312 6.76312 6.76312 7.32519 7.32519 7.32519 8.32306 8.32306 8.32306 7.24102 7.24102 7.24102 6.58484 6.58484 6.58484 7.76105 7.76105 7.76105 8.49509 8.49509 8.49509 7.84523 7.84523 7.84523 7.41013 7.41013 7.41013 7.4065 7.4065 7.4065 7.15407 7.15407 7.15407 7.06973 7.06973 7.06973 7.93218 7.93218 7.93218 8.01652 8.01652 8.01652 7.68003 7.68003 7.68003 6.98278 6.98278 6.98278 7.40669 7.40669 7.40669 6.89842 6.89842 6.89842 8.45466 8.45466 8.45466 8.10347 8.10347 8.10347 7.67956 7.67956 7.67956 8.1878 8.1878 8.1878 7.23477 7.23477 7.23477 6.81166 6.81166 6.81166 7.23546 7.23546 7.23546 6.72742 6.72742 6.72742 9.98139 9.98139 9.98139 5.01861 5.01861 5.01861 8.2746 8.2746 8.2746 7.8517 7.8517 7.8517 8.35896 8.35896 8.35896 7.85079 7.85079 7.85079 6.10563 6.10563 6.10563 6.63985 6.63985 6.63985 7.06417 7.06417 7.06417 7.06303 7.06303 7.06303 8.44614 8.44614 8.44614 6.63191 6.63191 6.63191 8.53496 8.53496 8.53496 8.02208 8.02208 8.02208 8.02345 8.02345 8.02345 6.89279 6.89279 6.89279 9.37496 9.37496 9.37496 5.62503 5.62503 5.62503 6.89138 6.89138 6.89138 8.19343 8.19343 8.19343 8.28182 8.28182 8.28182 6.72183 6.72183 6.72183 6.46138 6.46138 6.46138 8.19507 8.19507 8.19507 8.36465 8.36465 8.36465 6.71966 6.71966 6.71966 7.50048 7.50048 7.50048 8.92753 8.92753 8.92753 6.07347 6.07347 6.07347 8.54055 8.54055 8.54055 6.00149 6.00149 6.00149 8.9992 8.9992 8.9992 8.36688 8.36688 8.36688 6.80543 6.80543 6.80543 8.10922 8.10922 8.10922 5.97673 5.97673 5.97673 9.02347 9.02347 9.02347 6.97782 6.97782 6.97782 7.5866 7.5866 7.5866 7.52491 7.52491 7.52491 7.93622 7.93622 7.93622 7.48438 7.48438 7.48438 7.15082 7.15082 7.15082 7.48439 7.48439 7.48439 7.76351 7.76351 7.76351 7.52484 7.52484 7.52484 7.32354 7.32354 7.32354 7.60184 7.60184 7.60184 5.83265 5.83265 5.83265 9.1673 9.1673 9.1673 7.56147 7.56147 7.56147 7.3235 7.3235 7.3235 8.75652 8.75652 8.75652 6.25647 6.25647 6.25647 7.56163 7.56163 7.56163 7.36448 7.36448 7.36448 7.76281 7.76281 7.76281 6.09955 6.09955 6.09955 8.90799 8.90799 8.90799 7.60203 7.60203 7.60203 9.46278 9.46278 9.46278 5.53722 5.53722 5.53722 7.72181 7.72181 7.72181 7.15197 7.15197 7.15197 7.93434 7.93434 7.93434 7.19305 7.19305 7.19305 6.30204 6.30204 6.30204 9.77373 9.77373 9.77373 5.22627 5.22627 5.22627 9.50109 9.50109 9.50109 5.49891 5.49891 5.49891 6.53858 6.53858 6.53858 6.98064 6.98064 6.98064 9.53676 9.53676 9.53676 5.46324 5.46324 5.46324 7.89324 7.89324 7.89324 6.53532 6.53532 6.53532 8.10567 8.10567 8.10567 7.02173 7.02173 7.02173 7.36399 7.36399 7.36399 9.78658 9.78658 9.78658 5.21342 5.21342 5.21342 6.80705 6.80705 6.80705 9.8167 9.8167 9.8167 5.1833 5.1833 5.1833 7.32312 7.32312 7.32312 8.06456 8.06456 8.06456 8.27912 8.27912 8.27912 6.8493 6.8493 6.8493 5.5103 5.5103 5.5103 9.4897 9.4897 9.4897 7.72255 7.72255 7.72255 6.6372 6.6372 6.6372 8.23699 8.23699 8.23699 7.76338 7.76338 7.76338 9.81408 9.81408 9.81408 5.18592 5.18592 5.18592 8.45061 8.45061 8.45061 9.33421 9.33421 9.33421 5.66577 5.66577 5.66577 6.19818 6.19818 6.19818 9.75694 9.75694 9.75694 5.24306 5.24306 5.24306 6.67748 6.67748 6.67748 7.19211 7.19211 7.19211 8.40857 8.40857 8.40857 8.79054 8.79054 8.79054 7.15123 7.15123 7.15123 7.8944 7.8944 7.8944 7.93526 7.93526 7.93526 5.07402 5.07402 5.07402 9.92598 9.92598 9.92598 7.02033 7.02033 7.02033 5.91074 5.91074 5.91074 9.08946 9.08946 9.08946 6.97956 6.97956 6.97956 8.06618 8.06618 8.06618 9.06901 9.06901 9.06901 5.93107 5.93107 5.93107 8.10693 8.10693 8.10693 5.89201 5.89201 5.89201 9.10802 9.10802 9.10802 6.84866 6.84866 6.84866 6.43906 6.43906 6.43906 6.8065 6.8065 6.8065 6.56756 6.56756 6.56756 8.23782 8.23782 8.23782 8.27991 8.27991 8.27991 6.67557 6.67557 6.67557 6.63491 6.63491 6.63491 5.99083 5.99083 5.99083 9.00946 9.00946 9.00946 8.62554 8.62554 8.62554 9.92904 9.92904 9.92904 5.07096 5.07096 5.07096 8.40943 8.40943 8.40943 6.50909 6.50909 6.50909 8.45185 8.45185 8.45185 9.56192 9.56192 9.56192 5.43808 5.43808 5.43808 6.2868 6.2868 6.2868 9.71654 9.71654 9.71654 5.28346 5.28346 5.28346 5.68456 5.68456 5.68456 9.31545 9.31545 9.31545 9.55186 9.55186 9.55186 5.44814 5.44814 5.44814 8.61633 8.61633 8.61633 6.13944 6.13944 6.13944 5.69382 5.69382 5.69382 9.30615 9.30615 9.30615 9.3253 9.3253 9.3253 5.67469 5.67469 5.67469 8.58599 8.58599 8.58599 5.84738 5.84738 5.84738 9.15261 9.15261 9.15261 5.41939 5.41939 5.41939 9.58061 9.58061 9.58061 5.91977 5.91977 5.91977 9.07963 9.07963 9.07963 6.50813 6.50813 6.50813 9.46822 9.46822 9.46822 5.53178 5.53178 5.53178 9.86084 9.86084 9.86084 5.13916 5.13916 5.13916 5.20362 5.20362 5.20362 9.79638 9.79638 9.79638 6.4674 6.4674 6.4674 8.58585 8.58585 8.58585 9.83068 9.83068 9.83068 5.16932 5.16932 5.16932 8.7458 8.7458 8.7458 9.66831 9.66831 9.66831 5.33169 5.33169 5.33169 9.79664 9.79664 9.79664 5.20336 5.20336 5.20336 6.28917 6.28917 6.28917 8.73591 8.73591 8.73591 8.41029 8.41029 8.41029 8.70985 8.70985 8.70985 8.67424 8.67424 8.67424 9.20645 9.20645 9.20645 5.79353 5.79353 5.79353 8.68998 8.68998 8.68998 9.42769 9.42769 9.42769 5.57231 5.57231 5.57231 6.67606 6.67606 6.67606 9.64895 9.64895 9.64895 5.35105 5.35105 5.35105 8.65106 8.65106 8.65106 8.23771 8.23771 8.23771 8.70813 8.70813 8.70813 6.40256 6.40256 6.40256 8.58808 8.58808 8.58808 6.30571 6.30571 6.30571 6.84945 6.84945 6.84945 8.06597 8.06597 8.06597 6.50885 6.50885 6.50885 6.24368 6.24368 6.24368 6.47422 6.47422 6.47422 7.02109 7.02109 7.02109 6.38835 6.38835 6.38835 7.89297 7.89297 7.89297 5.46222 5.46222 5.46222 9.53778 9.53778 9.53778 9.63884 9.63884 9.63884 5.36116 5.36116 5.36116 7.54314 7.54314 7.54314 7.19409 7.19409 7.19409 7.3674 7.3674 7.3674 7.71884 7.71884 7.71884 5.49587 5.49587 5.49587 9.50413 9.50413 9.50413 9.74828 9.74828 9.74828 5.25172 5.25172 5.25172 5.85291 5.85291 5.85291 9.14758 9.14758 9.14758 7.19692 7.19692 7.19692 7.88934 7.88934 7.88934 7.02561 7.02561 7.02561 7.72085 7.72085 7.72085 8.06063 8.06063 8.06063 6.8544 6.8544 6.8544 8.23182 8.23182 8.23182 6.68425 6.68425 6.68425 8.40311 8.40311 8.40311 7.36621 7.36621 7.36621 8.584 8.584 8.584 7.54353 7.54353 7.54353 9.60721 9.60721 9.60721 5.39279 5.39279 5.39279 8.67951 8.67951 8.67951 5.88588 5.88588 5.88588 9.11345 9.11345 9.11345 9.67229 9.67229 9.67229 5.32771 5.32771 5.32771 8.62011 8.62011 8.62011 5.53654 5.53654 5.53654 9.46346 9.46346 9.46346 9.85837 9.85837 9.85837 5.14163 5.14163 5.14163 6.34893 6.34893 6.34893 5.81716 5.81716 5.81716 9.18335 9.18335 9.18335 5.80551 5.80551 5.80551 9.19447 9.19447 9.19447 9.7063 9.7063 9.7063 5.2937 5.2937 5.2937 5.7352 5.7352 5.7352 9.26481 9.26481 9.26481 6.10124 6.10124 6.10124 8.90336 8.90336 8.90336 6.51966 6.51966 6.51966 8.65046 8.65046 8.65046 8.82152 8.82152 8.82152 6.17826 6.17826 6.17826 9.36712 9.36712 9.36712 5.63287 5.63287 5.63287 5.77271 5.77271 5.77271 9.22722 9.22722 9.22722 5.89624 5.89624 5.89624 9.10294 9.10294 9.10294 9.43252 9.43252 9.43252 5.56747 5.56747 5.56747 9.39816 9.39816 9.39816 5.60183 5.60183 5.60183 9.99021 9.99021 9.99021 9.94863 9.94863 9.94863 5.05137 5.05137 5.05137 5.00979 5.00979 5.00979 9.62612 9.62612 9.62612 5.37388 5.37388 5.37388 5.05435 5.05435 5.05435 9.94565 9.94565 9.94565 9.5963 9.5963 9.5963 5.4037 5.4037 5.4037 9.98868 9.98868 9.98868 5.01132 5.01132 5.01132 8.69394 8.69394 8.69394 9.69082 9.69082 9.69082 5.30918 5.30918 5.30918 5.68366 5.68366 5.68366 9.31636 9.31636 9.31636 8.91414 8.91414 8.91414 6.08773 6.08773 6.08773 8.61998 8.61998 8.61998 8.9195 8.9195 8.9195 6.08226 6.08226 6.08226 5.43633 5.43633 5.43633 9.56367 9.56367 9.56367 5.74902 5.74902 5.74902 9.25103 9.25103 9.25103 9.27538 9.27538 9.27538 5.72462 5.72462 5.72462 9.38269 9.38269 9.38269 5.61731 5.61731 5.61731 9.35595 9.35595 9.35595 5.64406 5.64406 5.64406 6.35728 6.35728 6.35728 6.14225 6.14225 6.14225 8.84828 8.84828 8.84828 6.32096 6.32096 6.32096 6.28384 6.28384 6.28384 9.73303 9.73303 9.73303 5.26697 5.26697 5.26697 9.75653 9.75653 9.75653 5.24347 5.24347 5.24347 8.82795 8.82795 8.82795 6.4672 6.4672 6.4672 5.85877 5.85877 5.85877 9.14111 9.14111 9.14111 6.43269 6.43269 6.43269 9.48817 9.48817 9.48817 5.51183 5.51183 5.51183 5.89758 5.89758 5.89758 9.102 9.102 9.102 9.51911 9.51911 9.51911 5.48089 5.48089 5.48089 5.81489 5.81489 5.81489 9.18506 9.18506 9.18506 9.69993 9.69993 9.69993 5.30007 5.30007 5.30007 5.47678 5.47678 5.47678 9.52322 9.52322 9.52322 9.28534 9.28534 9.28534 5.71469 5.71469 5.71469 9.34714 9.34714 9.34714 5.65287 5.65287 5.65287 5.81319 5.81319 5.81319 9.18699 9.18699 9.18699 9.45603 9.45603 9.45603 5.54398 5.54398 5.54398 9.83011 9.83011 9.83011 5.16989 5.16989 5.16989 9.43473 9.43473 9.43473 5.56526 5.56526 5.56526 6.00926 6.00926 6.00926 8.99106 8.99106 8.99106 8.79565 8.79565 8.79565 6.15786 6.15786 6.15786 6.06205 6.06205 6.06205 8.93009 8.93009 8.93009 8.92781 8.92781 8.92781 6.07635 6.07635 6.07635 6.03447 6.03447 6.03447 8.96496 8.96496 8.96496 8.93594 8.93594 8.93594 6.06668 6.06668 6.06668 6.09482 6.09482 6.09482 8.9069 8.9069 8.9069 9.87536 9.87536 9.87536 5.12464 5.12464 5.12464 6.07659 6.07659 6.07659 8.92887 8.92887 8.92887 9.88215 9.88215 9.88215 5.11785 5.11785 5.11785 5.97488 5.97488 5.97488 9.02522 9.02522 9.02522 5.68378 5.68378 5.68378 9.31624 9.31624 9.31624 9.56295 9.56295 9.56295 5.43705 5.43705 5.43705 6.09315 6.09315 6.09315 8.90836 8.90836 8.90836 8.64462 8.64462 8.64462 8.66419 8.66419 8.66419 9.59858 9.59858 9.59858 5.40142 5.40142 5.40142 9.6358 9.6358 9.6358 5.3642 5.3642 5.3642 6.10296 6.10296 6.10296 8.89842 8.89842 8.89842 6.17827 6.17827 6.17827 9.59172 9.59172 9.59172 5.40828 5.40828 5.40828 6.16739 6.16739 6.16739 6.36702 6.36702 6.36702 9.84378 9.84378 9.84378 5.15622 5.15622 5.15622 6.33015 6.33015 6.33015 9.89524 9.89524 9.89524 5.10476 5.10476 5.10476 6.39263 6.39263 6.39263 9.87527 9.87527 9.87527 5.12473 5.12473 5.12473 6.43399 6.43399 6.43399 9.88881 9.88881 9.88881 5.11119 5.11119 5.11119 5.11858 5.11858 5.11858 9.88142 9.88142 9.88142 8.92239 8.92239 8.92239 6.08003 6.08003 6.08003 9.90734 9.90734 9.90734 5.09266 5.09266 5.09266 8.89131 8.89131 8.89131 6.11092 6.11092 6.11092 6.09148 6.09148 6.09148 8.91072 8.91072 8.91072 6.05925 6.05925 6.05925 8.94256 8.94256 8.94256 8.66925 8.66925 8.66925 9.88802 9.88802 9.88802 5.11198 5.11198 5.11198 9.91402 9.91402 9.91402 5.08598 5.08598 5.08598 5.32848 5.32848 5.32848 9.67152 9.67152 9.67152 8.66608 8.66608 8.66608 6.3785 6.3785 6.3785 6.39316 6.39316 6.39316 
VECTORS Velocity float 
9.34791e-11 -0.000645493 0 
9.44421e-11 -0.000731904 0 
-8.90857e-05 -0.0243584 0 
-5.55578e-11 0.0007318 0 
-5.65209e-11 0.000645732 0 
-8.87325e-05 0.0243595 0 
9.19543e-11 -0.000604442 0 
9.28297e-11 -0.000663778 0 
-6.06904e-05 -0.0240047 0 
-5.71705e-11 0.000664178 0 
-5.80475e-11 0.000605253 0 
-6.02703e-05 0.0240066 0 
0.00536924 0.00615915 0 
0.0150461 0.015145 0 
0.0121986 0.00402237 0 
0.0149625 -0.0151389 0 
0.00542077 -0.00605161 0 
0.0107128 -0.00394966 0 
0.013799 0.0166116 0 
0.00587793 0.00556096 0 
0.00336044 0.0105474 0 
0.00588394 -0.00550695 0 
0.0137739 -0.0165365 0 
0.00337388 -0.0104629 0 
0.0285032 -0.00475503 0 
0.0208759 -0.00602051 0 
0.0173152 -0.00185747 0 
-0.000205429 -0.024458 0 
0.000194643 -0.00056526 0 
-0.000206417 -0.0190155 0 
0.0001945 0.000565278 0 
-0.000204939 0.024459 0 
-0.000206293 0.0190158 0 
1.3537e-05 0.024068 0 
-9.84832e-05 0.000523398 0 
2.54016e-05 0.0185602 0 
-9.8334e-05 -0.00052271 0 
1.46788e-05 -0.0240673 0 
2.23948e-05 -0.0185571 0 
0.0153375 0.016714 0 
0.0225114 0.00607014 0 
0.0119662 0.00277117 0 
0.0208035 -0.00566854 0 
0.0150129 -0.0162963 0 
0.0106755 -0.00309392 0 
0.000788122 8.4506e-11 0 
0.000838211 8.54802e-11 0 
0.0246103 -5.01432e-05 0 
0.0224665 0.00603695 0 
0.0154682 0.0168107 0 
0.0254657 0.0133435 0 
0.0153378 -0.0166162 0 
0.0207458 -0.00561172 0 
0.0256806 -0.0135822 0 
0.00475654 0.020592 0 
0.0141691 0.0165987 0 
0.00294804 0.0105617 0 
0.0141638 -0.016523 0 
0.00476959 -0.0204984 0 
0.00295853 -0.0104772 0 
0.000846431 6.54757e-11 0 
0.000819328 6.63485e-11 0 
0.0255889 2.84586e-05 0 
0.0148726 0.0173049 0 
0.00432173 0.0201556 0 
0.00887646 0.0267529 0 
0.00433952 -0.0200667 0 
0.0148567 -0.0172186 0 
0.00889969 -0.0266573 0 
0.0307071 0.0036159 0 
0.022418 0.00647287 0 
0.0256013 0.0121259 0 
0.0206226 -0.00611601 0 
0.0284428 -0.00477781 0 
0.0258845 -0.0127474 0 
0.000782008 8.27772e-11 0 
0.000789073 8.37308e-11 0 
0.0247087 -7.05144e-06 0 
-0.000897759 0.000936997 0 
0.00471139 0.0207039 0 
0.00279772 0.0109341 0 
0.00472429 -0.0206106 0 
-0.000906479 -0.000927187 0 
0.0028081 -0.0108499 0 
0.00123941 0.00078115 0 
0.0210819 -0.00553672 0 
0.0108557 -0.00300858 0 
0.000787599 6.71418e-11 0 
0.000780343 6.81005e-11 0 
0.024648 7.22678e-06 0 
0.000762971 8.10414e-11 0 
0.000788718 8.19926e-11 0 
0.0246399 -2.55873e-05 0 
0.0216322 -0.000604622 0 
0.0285792 -0.004476 0 
0.0174026 -0.00153645 0 
0.000785042 6.88816e-11 0 
0.000761586 6.98325e-11 0 
0.0245991 2.32581e-05 0 
0.0246029 -3.676e-05 0 
0.000786614 9.34092e-05 0 
0.0232603 -0.00013482 0 
0.000760725 7.93028e-11 0 
0.000786848 8.02601e-11 0 
0.0245326 -2.58418e-05 0 
0.0165115 0.0234634 0 
0.0148079 0.0165802 0 
0.00889675 0.0269801 0 
0.0147903 -0.0164746 0 
0.0165282 -0.023401 0 
0.00891937 -0.0268777 0 
0.000783117 7.0614e-11 0 
0.000758936 7.15714e-11 0 
0.024491 2.38627e-05 0 
0.000751641 7.75668e-11 0 
0.000780792 7.85239e-11 0 
0.0244435 -2.8695e-05 0 
0.000772602 -7.50384e-11 0 
0.000752193 -7.40754e-11 0 
0.0242163 2.02099e-05 0 
0.000751555 -7.6787e-11 0 
0.000771159 -7.58244e-11 0 
0.0242018 -1.93977e-05 0 
0.0256686 0.000336833 0 
0.00157302 0.000294621 0 
0.0214034 0.00101724 0 
0.000736428 -7.33304e-11 0 
0.000764915 -7.23844e-11 0 
0.0242853 -2.81587e-05 0 
0.000776954 7.235e-11 0 
0.000749343 7.33076e-11 0 
0.0243996 2.71099e-05 0 
0.000763947 -7.84782e-11 0 
0.000735578 -7.75322e-11 0 
0.0242706 2.80167e-05 0 
0.000740118 -7.16176e-11 0 
0.000761489 -7.06708e-11 0 
0.0242577 -2.10865e-05 0 
0.000760485 -8.01918e-11 0 
0.000739253 -7.9245e-11 0 
0.0242434 2.093e-05 0 
0.00073784 -6.99045e-11 0 
0.000759236 -6.8958e-11 0 
0.0242338 -2.1074e-05 0 
0.000757992 -8.19043e-11 0 
0.000737036 -8.09581e-11 0 
0.0242182 2.06233e-05 0 
0.000738713 -6.81924e-11 0 
0.000745719 -6.72464e-11 0 
0.0241952 -6.88943e-06 0 
0.000758016 -8.36163e-11 0 
0.00073482 -8.26695e-11 0 
0.024197 2.2791e-05 0 
0.000810599 -6.64618e-11 0 
0.000885376 -6.56055e-11 0 
0.0254898 -7.89504e-05 0 
0.00078028 7.58351e-11 0 
0.000759631 7.68098e-11 0 
0.0242583 2.02276e-05 0 
0.00084718 -8.53491e-11 0 
0.000718268 -8.43762e-11 0 
0.0242848 0.000126408 0 
0.000756658 7.40638e-11 0 
0.000777669 7.50389e-11 0 
0.0242236 -2.05398e-05 0 
0.00127395 -6.29876e-11 0 
0.000327406 -6.17196e-11 0 
0.0212465 0.000862659 0 
-0.00109431 -0.000942121 0 
0.00483024 -0.0206022 0 
0.000562509 -0.0128813 0 
0.00482582 0.0206948 0 
-0.00109808 0.000952924 0 
0.000558133 0.0129306 0 
0.000733456 -6.47511e-11 0 
0.000859352 -6.38385e-11 0 
0.0249109 -0.000127259 0 
0.014562 0.0169243 0 
0.016766 0.0231073 0 
0.0259645 0.013281 0 
0.0167629 -0.0230727 0 
0.0146252 -0.0167055 0 
0.0259168 -0.0135526 0 
0.000557548 0.0285461 0 
-0.000519512 0.0293548 0 
-0.00023215 0.0298131 0 
-0.000520016 -0.0293545 0 
0.000557224 -0.0285464 0 
-0.000232956 -0.0298131 0 
0.000654235 0.0295602 0 
-0.000278845 0.0283027 0 
6.27671e-05 0.0298595 0 
-0.000258797 -0.028291 0 
0.000671164 -0.0295681 0 
6.7253e-05 -0.0298627 0 
0.0247394 -6.34723e-05 0 
0.000760986 5.1629e-05 0 
0.0236239 -3.22416e-05 0 
0.0269979 -0.000243202 0 
0.00130159 0.00066683 0 
0.0187158 -0.000392998 0 
0.00068893 -0.000298213 0 
0.0257669 0.000365525 0 
0.0215723 0.000382278 0 
-0.000664878 -0.0295625 0 
0.000859097 -0.0278837 0 
-0.000126929 -0.0297013 0 
0.000859094 0.0278837 0 
-0.000664863 0.0295625 0 
-0.000126894 0.0297013 0 
0.000311449 6.31117e-11 0 
3.59831e-05 6.39114e-11 0 
0.0196019 0.000203752 0 
0.000779235 -1.56225e-05 0 
0.024648 7.09585e-06 0 
0.0241044 1.6628e-06 0 
0.025125 -0.00043639 0 
0.000660647 0.000286942 0 
0.020537 -0.000294378 0 
-0.000402892 0.0233342 0 
0.000946728 0.0316061 0 
-0.000429126 0.0206296 0 
0.000946728 -0.0316061 0 
-0.000402892 -0.0233342 0 
-0.000429125 -0.0206296 0 
0.0246735 -8.93399e-05 0 
0.000756072 6.19686e-05 0 
0.0236113 -5.75925e-05 0 
0.000175604 0.0255535 0 
-0.000965521 0.00181052 0 
0.000458154 0.0204452 0 
-0.000965115 -0.00181002 0 
0.000177851 -0.0255535 0 
0.000457905 -0.020447 0 
0.000441942 -0.0233375 0 
-0.000993815 -0.0316014 0 
0.000462086 -0.020581 0 
-0.000993816 0.0316014 0 
0.000441942 0.0233375 0 
0.000462085 0.020581 0 
0.000660902 -0.0275445 0 
9.47403e-05 -0.00163811 0 
0.00141061 -0.0252088 0 